 Gaussian 09, Revision A.02,
 Gaussian 09:  EM64L-G09RevA.02 11-Jun-2009

 -------------------------------------------
 #p lc-blyp/6-311+g(3df,2p) nosymm scf=tight
 -------------------------------------------

 --------
 4 H2+CH3
 --------
 Symbolic Z-matrix:
 Charge =  0 Multiplicity = 2

                          Input orientation:
 ---------------------------------------------------------------------
 Center     Atomic      Atomic             Coordinates (Angstroms)
 Number     Number       Type             X           Y           Z
 ---------------------------------------------------------------------
      1          6           0        0.000000    0.000000    0.000000
      2          1           0        0.000000    0.000000    1.518040
      3          1           0        1.063810    0.000000   -0.203912
      4          1           0       -0.531905   -0.921286   -0.203912
      5          1           0       -0.531905    0.921286   -0.203912
      6          1           0        0.000000    0.000000    2.351394
 ---------------------------------------------------------------------

 SCF Done:  E(ULC-B+HF-LYP) =  -40.8615002099     A.U. after   12 cycles

 Alpha  occ. eigenvalues --  -10.14740  -0.86987  -0.59052  -0.55673  -0.55673
 Alpha  occ. eigenvalues --   -0.33690
 Alpha virt. eigenvalues --    0.06855   0.09052   0.09053   0.10285   0.22493
 Alpha virt. eigenvalues --    0.22494   0.22648   0.26427   0.35256   0.35256
 Alpha virt. eigenvalues --    0.40426   0.40426   0.42625   0.46657   0.62831

  Beta  occ. eigenvalues --  -10.13465  -0.83418  -0.54759  -0.54759  -0.53497
  Beta virt. eigenvalues --    0.01332   0.07766   0.09008   0.09008   0.10081
  Beta virt. eigenvalues --    0.22846   0.22846   0.24101   0.28093   0.35854
  Beta virt. eigenvalues --    0.35854   0.40533   0.40533   0.44175   0.48232

 Mulliken atomic charges:
              1
     1  C   -0.558090
     2  H    0.045489
     3  H    0.191532
     4  H    0.191527
     5  H    0.191527
     6  H   -0.061986
 Sum of Mulliken atomic charges =   0.00000

 Dipole moment (field-independent basis, Debye):
    X=              0.0000    Y=              0.0000    Z=             -0.6222  Tot=              0.6222
 Quadrupole moment (field-independent basis, Debye-Ang):
   XX=             -9.4770   YY=             -9.4770   ZZ=            -12.0164
   XY=              0.0000   XZ=              0.0000   YZ=              0.0000

 Normal termination of Gaussian 09 at Wed Nov  3 01:37:25 2010.
