 Gaussian 09, Revision A.02,
 Gaussian 09:  EM64L-G09RevA.02 11-Jun-2009

 -------------------------------------------
 #p lc-blyp/6-311+g(3df,2p) nosymm scf=tight
 -------------------------------------------

 --------
 20 H_CH4
 --------
 Symbolic Z-matrix:
 Charge =  0 Multiplicity = 2

                          Input orientation:
 ---------------------------------------------------------------------
 Center     Atomic      Atomic             Coordinates (Angstroms)
 Number     Number       Type             X           Y           Z
 ---------------------------------------------------------------------
      1          6           0        0.000000    0.000000    0.000000
      2          1           0        0.000000    0.000000    1.090964
      3          1           0        1.027352    0.000000   -0.362598
      4          1           0       -0.513676   -0.889713   -0.362598
      5          1           0       -0.513676    0.889713   -0.362598
      6          1           0        0.000000    0.000000    3.058394
 ---------------------------------------------------------------------

 SCF Done:  E(ULC-B+HF-LYP) =  -40.8828522432     A.U. after   11 cycles

 Alpha  occ. eigenvalues --  -10.11419  -0.86127  -0.54001  -0.52613  -0.52613
 Alpha  occ. eigenvalues --   -0.43889
 Alpha virt. eigenvalues --    0.06592   0.09515   0.09516   0.11064   0.22566
 Alpha virt. eigenvalues --    0.22567   0.25625   0.26893   0.35853   0.36427
 Alpha virt. eigenvalues --    0.36427   0.41842   0.41842   0.44985   0.64270

  Beta  occ. eigenvalues --  -10.11350  -0.85924  -0.52621  -0.52568  -0.52568
  Beta virt. eigenvalues --   -0.02126   0.06996   0.09405   0.09405   0.11587
  Beta virt. eigenvalues --    0.22575   0.22575   0.26037   0.27217   0.36442
  Beta virt. eigenvalues --    0.36442   0.38848   0.41795   0.41795   0.48556

 Mulliken atomic charges:
              1
     1  C   -0.690521
     2  H    0.191081
     3  H    0.166635
     4  H    0.166637
     5  H    0.166637
     6  H   -0.000470
 Sum of Mulliken atomic charges =   0.00000

 Dipole moment (field-independent basis, Debye):
    X=              0.0000    Y=              0.0000    Z=             -0.0538  Tot=              0.0538
 Quadrupole moment (field-independent basis, Debye-Ang):
   XX=             -9.9235   YY=             -9.9235   ZZ=            -10.1466
   XY=              0.0000   XZ=              0.0000   YZ=              0.0000

 Normal termination of Gaussian 09 at Wed Nov  3 01:19:21 2010.
