 Gaussian 09, Revision A.02,
 Gaussian 09:  EM64L-G09RevA.02 11-Jun-2009

 -------------------------------------------
 #p lc-blyp/6-311+g(3df,2p) nosymm scf=tight
 -------------------------------------------

 --------
 27 H_CH4
 --------
 Symbolic Z-matrix:
 Charge =  0 Multiplicity = 2

                          Input orientation:
 ---------------------------------------------------------------------
 Center     Atomic      Atomic             Coordinates (Angstroms)
 Number     Number       Type             X           Y           Z
 ---------------------------------------------------------------------
      1          6           0        0.000000    0.000000    0.000000
      2          1           0        0.000000    0.000000    1.089563
      3          1           0        1.027082    0.000000   -0.363071
      4          1           0       -0.513541   -0.889479   -0.363071
      5          1           0       -0.513541    0.889479   -0.363071
      6          1           0        0.000000    0.000000    3.407983
 ---------------------------------------------------------------------

 SCF Done:  E(ULC-B+HF-LYP) =  -40.8835322601     A.U. after   10 cycles

 Alpha  occ. eigenvalues --  -10.11349  -0.86001  -0.53118  -0.52545  -0.52545
 Alpha  occ. eigenvalues --   -0.44671
 Alpha virt. eigenvalues --    0.06473   0.09585   0.09585   0.11020   0.22636
 Alpha virt. eigenvalues --    0.22636   0.24598   0.26903   0.35541   0.36699
 Alpha virt. eigenvalues --    0.36699   0.41866   0.41866   0.44558   0.64579

  Beta  occ. eigenvalues --  -10.11321  -0.85915  -0.52542  -0.52526  -0.52526
  Beta virt. eigenvalues --   -0.02310   0.06822   0.09476   0.09476   0.11502
  Beta virt. eigenvalues --    0.22628   0.22628   0.25000   0.27040   0.36688
  Beta virt. eigenvalues --    0.36688   0.38804   0.41836   0.41836   0.47855

 Mulliken atomic charges:
              1
     1  C   -0.681133
     2  H    0.180047
     3  H    0.166293
     4  H    0.166294
     5  H    0.166294
     6  H    0.002205
 Sum of Mulliken atomic charges =   0.00000

 Dipole moment (field-independent basis, Debye):
    X=              0.0000    Y=              0.0000    Z=             -0.0068  Tot=              0.0068
 Quadrupole moment (field-independent basis, Debye-Ang):
   XX=             -9.9426   YY=             -9.9426   ZZ=             -9.9433
   XY=              0.0000   XZ=              0.0000   YZ=              0.0000

 Normal termination of Gaussian 09 at Wed Nov  3 01:23:18 2010.
