 Gaussian 09, Revision A.02,
 Gaussian 09:  EM64L-G09RevA.02 11-Jun-2009

 -------------------------------------------
 #p lc-blyp/6-311+g(3df,2p) nosymm scf=tight
 -------------------------------------------

 ---------
 32 H2+CH3
 ---------
 Symbolic Z-matrix:
 Charge =  0 Multiplicity = 2

                          Input orientation:
 ---------------------------------------------------------------------
 Center     Atomic      Atomic             Coordinates (Angstroms)
 Number     Number       Type             X           Y           Z
 ---------------------------------------------------------------------
      1          6           0        0.000000    0.000000    0.000000
      2          1           0        0.000000    0.000000    3.021240
      3          1           0        1.079224    0.000000   -0.003821
      4          1           0       -0.539612   -0.934635   -0.003821
      5          1           0       -0.539612    0.934635   -0.003821
      6          1           0        0.000000    0.000000    3.764763
 ---------------------------------------------------------------------

 SCF Done:  E(ULC-B+HF-LYP) =  -40.8752184660     A.U. after   11 cycles

 Alpha  occ. eigenvalues --  -10.14730  -0.85396  -0.56403  -0.55880  -0.55880
 Alpha  occ. eigenvalues --   -0.36629
 Alpha virt. eigenvalues --    0.06883   0.09232   0.09232   0.12803   0.16245
 Alpha virt. eigenvalues --    0.23389   0.23389   0.24100   0.35917   0.38805
 Alpha virt. eigenvalues --    0.38806   0.40348   0.40348   0.47270   0.62898

  Beta  occ. eigenvalues --  -10.13310  -0.80794  -0.56237  -0.54818  -0.54818
  Beta virt. eigenvalues --    0.01500   0.06811   0.09061   0.09061   0.14768
  Beta virt. eigenvalues --    0.17295   0.23623   0.23623   0.25030   0.36188
  Beta virt. eigenvalues --    0.39964   0.39964   0.40375   0.40375   0.48951

 Mulliken atomic charges:
              1
     1  C   -0.569824
     2  H   -0.006178
     3  H    0.191630
     4  H    0.191632
     5  H    0.191632
     6  H    0.001108
 Sum of Mulliken atomic charges =   0.00000

 Dipole moment (field-independent basis, Debye):
    X=              0.0000    Y=              0.0000    Z=             -0.0664  Tot=              0.0664
 Quadrupole moment (field-independent basis, Debye-Ang):
   XX=             -9.4663   YY=             -9.4663   ZZ=            -11.0192
   XY=              0.0000   XZ=              0.0000   YZ=              0.0000

 Normal termination of Gaussian 09 at Wed Nov  3 01:54:10 2010.
