 Gaussian 09, Revision A.02,
 Gaussian 09:  EM64L-G09RevA.02 11-Jun-2009

 -------------------------------------------
 #p lc-blyp/6-311+g(3df,2p) nosymm scf=tight
 -------------------------------------------

 ---------
 17 H2+CH3
 ---------
 Symbolic Z-matrix:
 Charge =  0 Multiplicity = 2

                          Input orientation:
 ---------------------------------------------------------------------
 Center     Atomic      Atomic             Coordinates (Angstroms)
 Number     Number       Type             X           Y           Z
 ---------------------------------------------------------------------
      1          6           0        0.000000    0.000000    0.000000
      2          1           0        0.000000    0.000000    2.307228
      3          1           0        1.079174    0.000000   -0.016405
      4          1           0       -0.539587   -0.934592   -0.016405
      5          1           0       -0.539587    0.934592   -0.016405
      6          1           0        0.000000    0.000000    3.054380
 ---------------------------------------------------------------------

 SCF Done:  E(ULC-B+HF-LYP) =  -40.8741709233     A.U. after   12 cycles

 Alpha  occ. eigenvalues --  -10.14718  -0.85632  -0.56599  -0.55980  -0.55980
 Alpha  occ. eigenvalues --   -0.36266
 Alpha virt. eigenvalues --    0.06960   0.09100   0.09100   0.11965   0.18125
 Alpha virt. eigenvalues --    0.23296   0.23296   0.24884   0.37586   0.37586
 Alpha virt. eigenvalues --    0.39045   0.40254   0.40254   0.49631   0.59324

  Beta  occ. eigenvalues --  -10.13292  -0.81060  -0.55651  -0.54921  -0.54921
  Beta virt. eigenvalues --    0.01738   0.07157   0.08984   0.08984   0.12714
  Beta virt. eigenvalues --    0.20197   0.23548   0.23548   0.25990   0.38720
  Beta virt. eigenvalues --    0.38720   0.40033   0.40254   0.40255   0.51083

 Mulliken atomic charges:
              1
     1  C   -0.588254
     2  H    0.015155
     3  H    0.199071
     4  H    0.199072
     5  H    0.199072
     6  H   -0.024116
 Sum of Mulliken atomic charges =   0.00000

 Dipole moment (field-independent basis, Debye):
    X=              0.0000    Y=              0.0000    Z=             -0.1377  Tot=              0.1377
 Quadrupole moment (field-independent basis, Debye-Ang):
   XX=             -9.4232   YY=             -9.4232   ZZ=            -11.2833
   XY=              0.0000   XZ=              0.0000   YZ=              0.0000

 Normal termination of Gaussian 09 at Wed Nov  3 01:45:32 2010.
