 Gaussian 09, Revision A.02,
 Gaussian 09:  EM64L-G09RevA.02 11-Jun-2009

 -------------------------------------------
 #p lc-blyp/6-311+g(3df,2p) nosymm scf=tight
 -------------------------------------------

 --------
 33 H_CH4
 --------
 Symbolic Z-matrix:
 Charge =  0 Multiplicity = 2

                          Input orientation:
 ---------------------------------------------------------------------
 Center     Atomic      Atomic             Coordinates (Angstroms)
 Number     Number       Type             X           Y           Z
 ---------------------------------------------------------------------
      1          6           0        0.000000    0.000000    0.000000
      2          1           0        0.000000    0.000000    1.089315
      3          1           0        1.027031    0.000000   -0.363081
      4          1           0       -0.513516   -0.889435   -0.363081
      5          1           0       -0.513516    0.889435   -0.363081
      6          1           0        0.000000    0.000000    3.682207
 ---------------------------------------------------------------------

 SCF Done:  E(ULC-B+HF-LYP) =  -40.8836158937     A.U. after   10 cycles

 Alpha  occ. eigenvalues --  -10.11335  -0.85963  -0.52797  -0.52529  -0.52529
 Alpha  occ. eigenvalues --   -0.44915
 Alpha virt. eigenvalues --    0.06376   0.09625   0.09625   0.10878   0.22661
 Alpha virt. eigenvalues --    0.22661   0.23637   0.27130   0.35902   0.36794
 Alpha virt. eigenvalues --    0.36794   0.41859   0.41859   0.43776   0.64668

  Beta  occ. eigenvalues --  -10.11320  -0.85919  -0.52523  -0.52519  -0.52519
  Beta virt. eigenvalues --   -0.02343   0.06688   0.09523   0.09523   0.11325
  Beta virt. eigenvalues --    0.22649   0.22649   0.24001   0.27163   0.36781
  Beta virt. eigenvalues --    0.36781   0.39203   0.41838   0.41838   0.46999

 Mulliken atomic charges:
              1
     1  C   -0.671992
     2  H    0.170428
     3  H    0.166317
     4  H    0.166318
     5  H    0.166318
     6  H    0.002611
 Sum of Mulliken atomic charges =   0.00000

 Dipole moment (field-independent basis, Debye):
    X=              0.0000    Y=              0.0000    Z=              0.0064  Tot=              0.0064
 Quadrupole moment (field-independent basis, Debye-Ang):
   XX=             -9.9490   YY=             -9.9490   ZZ=             -9.8759
   XY=              0.0000   XZ=              0.0000   YZ=              0.0000

 Normal termination of Gaussian 09 at Wed Nov  3 01:26:29 2010.
