 Gaussian 09, Revision A.02,
 Gaussian 09:  EM64L-G09RevA.02 11-Jun-2009

 -------------------------------------------
 #p lc-blyp/6-311+g(3df,2p) nosymm scf=tight
 -------------------------------------------

 --------
 46 H_CH4
 --------
 Symbolic Z-matrix:
 Charge =  0 Multiplicity = 2

                          Input orientation:
 ---------------------------------------------------------------------
 Center     Atomic      Atomic             Coordinates (Angstroms)
 Number     Number       Type             X           Y           Z
 ---------------------------------------------------------------------
      1          6           0        0.000000    0.000000    0.000000
      2          1           0        0.000000    0.000000    1.089266
      3          1           0        1.027014    0.000000   -0.363049
      4          1           0       -0.513507   -0.889420   -0.363049
      5          1           0       -0.513507    0.889420   -0.363049
      6          1           0        0.000000    0.000000    4.020864
 ---------------------------------------------------------------------

 SCF Done:  E(ULC-B+HF-LYP) =  -40.8835614026     A.U. after   10 cycles

 Alpha  occ. eigenvalues --  -10.11329  -0.85944  -0.52621  -0.52523  -0.52523
 Alpha  occ. eigenvalues --   -0.45017
 Alpha virt. eigenvalues --    0.06261   0.09659   0.09660   0.10631   0.22678
 Alpha virt. eigenvalues --    0.22678   0.22714   0.27345   0.36759   0.36840
 Alpha virt. eigenvalues --    0.36840   0.41865   0.41865   0.42506   0.61912

  Beta  occ. eigenvalues --  -10.11323  -0.85924  -0.52519  -0.52519  -0.52516
  Beta virt. eigenvalues --   -0.02307   0.06528   0.09574   0.09574   0.11022
  Beta virt. eigenvalues --    0.22665   0.22665   0.23044   0.27310   0.36830
  Beta virt. eigenvalues --    0.36830   0.40113   0.41848   0.41848   0.45677

 Mulliken atomic charges:
              1
     1  C   -0.665192
     2  H    0.163469
     3  H    0.166464
     4  H    0.166464
     5  H    0.166464
     6  H    0.002330
 Sum of Mulliken atomic charges =   0.00000

 Dipole moment (field-independent basis, Debye):
    X=              0.0000    Y=              0.0000    Z=              0.0119  Tot=              0.0119
 Quadrupole moment (field-independent basis, Debye-Ang):
   XX=             -9.9513   YY=             -9.9513   ZZ=             -9.8438
   XY=              0.0000   XZ=              0.0000   YZ=              0.0000

 Normal termination of Gaussian 09 at Wed Nov  3 01:33:16 2010.
