 Gaussian 09, Revision A.02,
 Gaussian 09:  EM64L-G09RevA.02 11-Jun-2009

 -------------------------------------------
 #p lc-blyp/6-311+g(3df,2p) nosymm scf=tight
 -------------------------------------------

 -------
 7 H_CH4
 -------
 Symbolic Z-matrix:
 Charge =  0 Multiplicity = 2

                          Input orientation:
 ---------------------------------------------------------------------
 Center     Atomic      Atomic             Coordinates (Angstroms)
 Number     Number       Type             X           Y           Z
 ---------------------------------------------------------------------
      1          6           0        0.000000    0.000000    0.000000
      2          1           0        0.000000    0.000000    1.150832
      3          1           0        1.036034    0.000000   -0.334722
      4          1           0       -0.518017   -0.897232   -0.334722
      5          1           0       -0.518017    0.897232   -0.334722
      6          1           0        0.000000    0.000000    2.315405
 ---------------------------------------------------------------------

 SCF Done:  E(ULC-B+HF-LYP) =  -40.8715197676     A.U. after   12 cycles

 Alpha  occ. eigenvalues --  -10.12876  -0.87483  -0.59374  -0.53862  -0.53862
 Alpha  occ. eigenvalues --   -0.37239
 Alpha virt. eigenvalues --    0.06755   0.09243   0.09243   0.10387   0.22053
 Alpha virt. eigenvalues --    0.22053   0.24864   0.28894   0.34949   0.34949
 Alpha virt. eigenvalues --    0.39232   0.41052   0.41052   0.46389   0.62589

  Beta  occ. eigenvalues --  -10.12366  -0.86071  -0.53647  -0.53522  -0.53522
  Beta virt. eigenvalues --   -0.00198   0.07470   0.09149   0.09149   0.10687
  Beta virt. eigenvalues --    0.22223   0.22223   0.25439   0.29772   0.35194
  Beta virt. eigenvalues --    0.35194   0.40176   0.41034   0.41034   0.50443

 Mulliken atomic charges:
              1
     1  C   -0.682178
     2  H    0.207709
     3  H    0.173237
     4  H    0.173242
     5  H    0.173242
     6  H   -0.045252
 Sum of Mulliken atomic charges =   0.00000

 Dipole moment (field-independent basis, Debye):
    X=              0.0000    Y=              0.0000    Z=             -0.5581  Tot=              0.5581
 Quadrupole moment (field-independent basis, Debye-Ang):
   XX=             -9.7529   YY=             -9.7529   ZZ=            -11.7158
   XY=              0.0000   XZ=              0.0000   YZ=              0.0000

 Normal termination of Gaussian 09 at Wed Nov  3 01:11:33 2010.
