 Gaussian 09, Revision A.02,
 Gaussian 09:  EM64L-G09RevA.02 11-Jun-2009

 -------------------------------------------
 #p lc-blyp/6-311+g(3df,2p) nosymm scf=tight
 -------------------------------------------

 --------
 1 ch5.in
 --------
 Symbolic Z-matrix:
 Charge =  0 Multiplicity = 2

                          Input orientation:
 ---------------------------------------------------------------------
 Center     Atomic      Atomic             Coordinates (Angstroms)
 Number     Number       Type             X           Y           Z
 ---------------------------------------------------------------------
      1          6           0        0.000000    0.000000    0.000000
      2          1           0        0.000000    0.000000    1.398983
      3          1           0        1.056587    0.000000   -0.246154
      4          1           0       -0.528293   -0.915031   -0.246154
      5          1           0       -0.528293    0.915031   -0.246154
      6          1           0        0.000000    0.000000    2.294379
 ---------------------------------------------------------------------

 SCF Done:  E(ULC-B+HF-LYP) =  -40.8608932685     A.U. after   13 cycles

 Alpha  occ. eigenvalues --  -10.14628  -0.87304  -0.59634  -0.55353  -0.55353
 Alpha  occ. eigenvalues --   -0.33647
 Alpha virt. eigenvalues --    0.06831   0.09086   0.09086   0.10141   0.22260
 Alpha virt. eigenvalues --    0.22261   0.23397   0.27034   0.34953   0.34953
 Alpha virt. eigenvalues --    0.40549   0.40549   0.41367   0.46894   0.62777

  Beta  occ. eigenvalues --  -10.13515  -0.84295  -0.54567  -0.54567  -0.53154
  Beta virt. eigenvalues --    0.00926   0.07780   0.09029   0.09029   0.09874
  Beta virt. eigenvalues --    0.22596   0.22596   0.24526   0.28690   0.35419
  Beta virt. eigenvalues --    0.35419   0.40622   0.40622   0.42583   0.49177

 Mulliken atomic charges:
              1
     1  C   -0.570043
     2  H    0.069178
     3  H    0.187097
     4  H    0.187095
     5  H    0.187095
     6  H   -0.060422
 Sum of Mulliken atomic charges =   0.00000

 Dipole moment (field-independent basis, Debye):
    X=              0.0000    Y=              0.0000    Z=             -0.6983  Tot=              0.6983
 Quadrupole moment (field-independent basis, Debye-Ang):
   XX=             -9.5587   YY=             -9.5587   ZZ=            -12.1378
   XY=              0.0000   XZ=              0.0000   YZ=              0.0000

 Normal termination of Gaussian 09 at Wed Nov  3 01:35:30 2010.
