 Gaussian 09, Revision A.02,
 Gaussian 09:  EM64L-G09RevA.02 11-Jun-2009

 -------------------------------------------
 #p lc-blyp/6-311+g(3df,2p) nosymm scf=tight
 -------------------------------------------

 ---------
 33 H2+CH3
 ---------
 Symbolic Z-matrix:
 Charge =  0 Multiplicity = 2

                          Input orientation:
 ---------------------------------------------------------------------
 Center     Atomic      Atomic             Coordinates (Angstroms)
 Number     Number       Type             X           Y           Z
 ---------------------------------------------------------------------
      1          6           0        0.000000    0.000000    0.000000
      2          1           0        0.000000    0.000000    3.047803
      3          1           0        1.079221    0.000000   -0.003762
      4          1           0       -0.539611   -0.934633   -0.003762
      5          1           0       -0.539611    0.934633   -0.003762
      6          1           0        0.000000    0.000000    3.791287
 ---------------------------------------------------------------------

 SCF Done:  E(ULC-B+HF-LYP) =  -40.8752073325     A.U. after   11 cycles

 Alpha  occ. eigenvalues --  -10.14729  -0.85392  -0.56405  -0.55878  -0.55878
 Alpha  occ. eigenvalues --   -0.36629
 Alpha virt. eigenvalues --    0.06879   0.09236   0.09236   0.12802   0.16226
 Alpha virt. eigenvalues --    0.23391   0.23391   0.24073   0.35866   0.38843
 Alpha virt. eigenvalues --    0.38843   0.40350   0.40350   0.47085   0.62897

  Beta  occ. eigenvalues --  -10.13309  -0.80790  -0.56249  -0.54816  -0.54816
  Beta virt. eigenvalues --    0.01494   0.06801   0.09064   0.09064   0.14838
  Beta virt. eigenvalues --    0.17206   0.23625   0.23625   0.24997   0.36118
  Beta virt. eigenvalues --    0.39999   0.39999   0.40381   0.40382   0.48765

 Mulliken atomic charges:
              1
     1  C   -0.569462
     2  H   -0.006375
     3  H    0.191458
     4  H    0.191460
     5  H    0.191460
     6  H    0.001460
 Sum of Mulliken atomic charges =   0.00000

 Dipole moment (field-independent basis, Debye):
    X=              0.0000    Y=              0.0000    Z=             -0.0651  Tot=              0.0651
 Quadrupole moment (field-independent basis, Debye-Ang):
   XX=             -9.4670   YY=             -9.4670   ZZ=            -11.0144
   XY=              0.0000   XZ=              0.0000   YZ=              0.0000

 Normal termination of Gaussian 09 at Wed Nov  3 01:54:44 2010.
