 Gaussian 09, Revision A.02,
 Gaussian 09:  EM64L-G09RevA.02 11-Jun-2009

 -------------------------------------------
 #p lc-blyp/6-311+g(3df,2p) nosymm scf=tight
 -------------------------------------------

 -------
 9 H_CH4
 -------
 Symbolic Z-matrix:
 Charge =  0 Multiplicity = 2

                          Input orientation:
 ---------------------------------------------------------------------
 Center     Atomic      Atomic             Coordinates (Angstroms)
 Number     Number       Type             X           Y           Z
 ---------------------------------------------------------------------
      1          6           0        0.000000    0.000000    0.000000
      2          1           0        0.000000    0.000000    1.118410
      3          1           0        1.031867    0.000000   -0.348983
      4          1           0       -0.515933   -0.893623   -0.348983
      5          1           0       -0.515933    0.893623   -0.348983
      6          1           0        0.000000    0.000000    2.438081
 ---------------------------------------------------------------------

 SCF Done:  E(ULC-B+HF-LYP) =  -40.8757113355     A.U. after   12 cycles

 Alpha  occ. eigenvalues --  -10.12273  -0.87083  -0.58040  -0.53372  -0.53372
 Alpha  occ. eigenvalues --   -0.39313
 Alpha virt. eigenvalues --    0.06737   0.09312   0.09312   0.10615   0.22180
 Alpha virt. eigenvalues --    0.22180   0.25136   0.28740   0.35275   0.35275
 Alpha virt. eigenvalues --    0.38736   0.41309   0.41309   0.45857   0.62881

  Beta  occ. eigenvalues --  -10.11929  -0.86106  -0.53348  -0.53144  -0.53144
  Beta virt. eigenvalues --   -0.00820   0.07342   0.09216   0.09216   0.11066
  Beta virt. eigenvalues --    0.22293   0.22293   0.25678   0.29401   0.35461
  Beta virt. eigenvalues --    0.35461   0.40010   0.41274   0.41274   0.50235

 Mulliken atomic charges:
              1
     1  C   -0.701202
     2  H    0.220980
     3  H    0.170480
     4  H    0.170483
     5  H    0.170483
     6  H   -0.031223
 Sum of Mulliken atomic charges =   0.00000

 Dipole moment (field-independent basis, Debye):
    X=              0.0000    Y=              0.0000    Z=             -0.4018  Tot=              0.4018
 Quadrupole moment (field-independent basis, Debye-Ang):
   XX=             -9.8110   YY=             -9.8110   ZZ=            -11.2709
   XY=              0.0000   XZ=              0.0000   YZ=              0.0000

 Normal termination of Gaussian 09 at Wed Nov  3 01:12:48 2010.
