 Gaussian 09, Revision A.02,
 Gaussian 09:  EM64L-G09RevA.02 11-Jun-2009

 -------------------------------------------
 #p lc-blyp/6-311+g(3df,2p) nosymm scf=tight
 -------------------------------------------

 --------
 15 H_CH4
 --------
 Symbolic Z-matrix:
 Charge =  0 Multiplicity = 2

                          Input orientation:
 ---------------------------------------------------------------------
 Center     Atomic      Atomic             Coordinates (Angstroms)
 Number     Number       Type             X           Y           Z
 ---------------------------------------------------------------------
      1          6           0        0.000000    0.000000    0.000000
      2          1           0        0.000000    0.000000    1.094854
      3          1           0        1.028091    0.000000   -0.360700
      4          1           0       -0.514046   -0.890353   -0.360700
      5          1           0       -0.514046    0.890353   -0.360700
      6          1           0        0.000000    0.000000    2.789275
 ---------------------------------------------------------------------

 SCF Done:  E(ULC-B+HF-LYP) =  -40.8812534419     A.U. after   11 cycles

 Alpha  occ. eigenvalues --  -10.11585  -0.86365  -0.55272  -0.52770  -0.52770
 Alpha  occ. eigenvalues --   -0.42622
 Alpha virt. eigenvalues --    0.06671   0.09443   0.09444   0.10974   0.22456
 Alpha virt. eigenvalues --    0.22456   0.25586   0.27665   0.36040   0.36040
 Alpha virt. eigenvalues --    0.36863   0.41723   0.41723   0.45211   0.63763

  Beta  occ. eigenvalues --  -10.11450  -0.85969  -0.52791  -0.52681  -0.52681
  Beta virt. eigenvalues --   -0.01787   0.07135   0.09339   0.09339   0.11516
  Beta virt. eigenvalues --    0.22491   0.22491   0.26055   0.28086   0.36107
  Beta virt. eigenvalues --    0.36107   0.39312   0.41670   0.41670   0.49207

 Mulliken atomic charges:
              1
     1  C   -0.697081
     2  H    0.201785
     3  H    0.167471
     4  H    0.167473
     5  H    0.167473
     6  H   -0.007122
 Sum of Mulliken atomic charges =   0.00000

 Dipole moment (field-independent basis, Debye):
    X=              0.0000    Y=              0.0000    Z=             -0.1417  Tot=              0.1417
 Quadrupole moment (field-independent basis, Debye-Ang):
   XX=             -9.8938   YY=             -9.8938   ZZ=            -10.4676
   XY=              0.0000   XZ=              0.0000   YZ=              0.0000

 Normal termination of Gaussian 09 at Wed Nov  3 01:16:29 2010.
