 Gaussian 09, Revision A.02,
 Gaussian 09:  EM64L-G09RevA.02 11-Jun-2009

 -------------------------------------------
 #p lc-blyp/6-311+g(3df,2p) nosymm scf=tight
 -------------------------------------------

 ---------
 30 H2+CH3
 ---------
 Symbolic Z-matrix:
 Charge =  0 Multiplicity = 2

                          Input orientation:
 ---------------------------------------------------------------------
 Center     Atomic      Atomic             Coordinates (Angstroms)
 Number     Number       Type             X           Y           Z
 ---------------------------------------------------------------------
      1          6           0        0.000000    0.000000    0.000000
      2          1           0        0.000000    0.000000    2.945389
      3          1           0        1.079232    0.000000   -0.003997
      4          1           0       -0.539616   -0.934643   -0.003997
      5          1           0       -0.539616    0.934643   -0.003997
      6          1           0        0.000000    0.000000    3.689046
 ---------------------------------------------------------------------

 SCF Done:  E(ULC-B+HF-LYP) =  -40.8752441086     A.U. after   11 cycles

 Alpha  occ. eigenvalues --  -10.14734  -0.85409  -0.56400  -0.55888  -0.55888
 Alpha  occ. eigenvalues --   -0.36624
 Alpha virt. eigenvalues --    0.06894   0.09218   0.09219   0.12793   0.16319
 Alpha virt. eigenvalues --    0.23383   0.23383   0.24180   0.36084   0.38693
 Alpha virt. eigenvalues --    0.38693   0.40344   0.40344   0.47777   0.62780

  Beta  occ. eigenvalues --  -10.13313  -0.80807  -0.56200  -0.54826  -0.54826
  Beta virt. eigenvalues --    0.01517   0.06839   0.09053   0.09053   0.14563
  Beta virt. eigenvalues --    0.17556   0.23618   0.23618   0.25126   0.36413
  Beta virt. eigenvalues --    0.39855   0.39855   0.40358   0.40358   0.49464

 Mulliken atomic charges:
              1
     1  C   -0.571028
     2  H   -0.005457
     3  H    0.192181
     4  H    0.192181
     5  H    0.192181
     6  H   -0.000058
 Sum of Mulliken atomic charges =   0.00000

 Dipole moment (field-independent basis, Debye):
    X=              0.0000    Y=              0.0000    Z=             -0.0702  Tot=              0.0702
 Quadrupole moment (field-independent basis, Debye-Ang):
   XX=             -9.4641   YY=             -9.4641   ZZ=            -11.0339
   XY=              0.0000   XZ=              0.0000   YZ=              0.0000

 Normal termination of Gaussian 09 at Wed Nov  3 01:53:02 2010.
