 Gaussian 09, Revision A.02,
 Gaussian 09:  EM64L-G09RevA.02 11-Jun-2009

 -------------------------------------------
 #p lc-blyp/6-311+g(3df,2p) nosymm scf=tight
 -------------------------------------------

 ---------
 36 H2+CH3
 ---------
 Symbolic Z-matrix:
 Charge =  0 Multiplicity = 2

                          Input orientation:
 ---------------------------------------------------------------------
 Center     Atomic      Atomic             Coordinates (Angstroms)
 Number     Number       Type             X           Y           Z
 ---------------------------------------------------------------------
      1          6           0        0.000000    0.000000    0.000000
      2          1           0        0.000000    0.000000    3.098275
      3          1           0        1.079216    0.000000   -0.003654
      4          1           0       -0.539608   -0.934628   -0.003654
      5          1           0       -0.539608    0.934628   -0.003654
      6          1           0        0.000000    0.000000    3.841687
 ---------------------------------------------------------------------

 SCF Done:  E(ULC-B+HF-LYP) =  -40.8751839168     A.U. after   11 cycles

 Alpha  occ. eigenvalues --  -10.14726  -0.85385  -0.56409  -0.55873  -0.55873
 Alpha  occ. eigenvalues --   -0.36630
 Alpha virt. eigenvalues --    0.06872   0.09245   0.09245   0.12791   0.16199
 Alpha virt. eigenvalues --    0.23395   0.23395   0.24023   0.35779   0.38912
 Alpha virt. eigenvalues --    0.38912   0.40352   0.40352   0.46727   0.62895

  Beta  occ. eigenvalues --  -10.13307  -0.80783  -0.56272  -0.54811  -0.54811
  Beta virt. eigenvalues --    0.01484   0.06783   0.09070   0.09070   0.14968
  Beta virt. eigenvalues --    0.17042   0.23628   0.23628   0.24935   0.35997
  Beta virt. eigenvalues --    0.40061   0.40061   0.40396   0.40397   0.48404

 Mulliken atomic charges:
              1
     1  C   -0.568846
     2  H   -0.006677
     3  H    0.191155
     4  H    0.191158
     5  H    0.191158
     6  H    0.002051
 Sum of Mulliken atomic charges =   0.00000

 Dipole moment (field-independent basis, Debye):
    X=              0.0000    Y=              0.0000    Z=             -0.0627  Tot=              0.0627
 Quadrupole moment (field-independent basis, Debye-Ang):
   XX=             -9.4681   YY=             -9.4681   ZZ=            -11.0061
   XY=              0.0000   XZ=              0.0000   YZ=              0.0000

 Normal termination of Gaussian 09 at Wed Nov  3 01:56:27 2010.
