 Gaussian 09, Revision A.02,
 Gaussian 09:  EM64L-G09RevA.02 11-Jun-2009

 -------------------------------------------
 #p lc-blyp/6-311+g(3df,2p) nosymm scf=tight
 -------------------------------------------

 --------
 29 H_CH4
 --------
 Symbolic Z-matrix:
 Charge =  0 Multiplicity = 2

                          Input orientation:
 ---------------------------------------------------------------------
 Center     Atomic      Atomic             Coordinates (Angstroms)
 Number     Number       Type             X           Y           Z
 ---------------------------------------------------------------------
      1          6           0        0.000000    0.000000    0.000000
      2          1           0        0.000000    0.000000    1.089436
      3          1           0        1.027058    0.000000   -0.363087
      4          1           0       -0.513529   -0.889458   -0.363087
      5          1           0       -0.513529    0.889458   -0.363087
      6          1           0        0.000000    0.000000    3.502175
 ---------------------------------------------------------------------

 SCF Done:  E(ULC-B+HF-LYP) =  -40.8835858856     A.U. after   11 cycles

 Alpha  occ. eigenvalues --  -10.11342  -0.85985  -0.52982  -0.52538  -0.52538
 Alpha  occ. eigenvalues --   -0.44780
 Alpha virt. eigenvalues --    0.06440   0.09600   0.09600   0.10980   0.22646
 Alpha virt. eigenvalues --    0.22646   0.24255   0.26983   0.35617   0.36740
 Alpha virt. eigenvalues --    0.36740   0.41863   0.41863   0.44337   0.64619

  Beta  occ. eigenvalues --  -10.11320  -0.85916  -0.52533  -0.52522  -0.52522
  Beta virt. eigenvalues --   -0.02330   0.06776   0.09492   0.09493   0.11451
  Beta virt. eigenvalues --    0.22637   0.22637   0.24646   0.27079   0.36727
  Beta virt. eigenvalues --    0.36727   0.38901   0.41837   0.41837   0.47598

 Mulliken atomic charges:
              1
     1  C   -0.677928
     2  H    0.176633
     3  H    0.166283
     4  H    0.166284
     5  H    0.166284
     6  H    0.002445
 Sum of Mulliken atomic charges =   0.00000

 Dipole moment (field-independent basis, Debye):
    X=              0.0000    Y=              0.0000    Z=             -0.0008  Tot=              0.0008
 Quadrupole moment (field-independent basis, Debye-Ang):
   XX=             -9.9454   YY=             -9.9454   ZZ=             -9.9139
   XY=              0.0000   XZ=              0.0000   YZ=              0.0000

 Normal termination of Gaussian 09 at Wed Nov  3 01:24:24 2010.
