 Gaussian 09, Revision A.02,
 Gaussian 09:  EM64L-G09RevA.02 11-Jun-2009

 -------------------------------------------
 #p lc-blyp/6-311+g(3df,2p) nosymm scf=tight
 -------------------------------------------

 --------
 43 H_CH4
 --------
 Symbolic Z-matrix:
 Charge =  0 Multiplicity = 2

                          Input orientation:
 ---------------------------------------------------------------------
 Center     Atomic      Atomic             Coordinates (Angstroms)
 Number     Number       Type             X           Y           Z
 ---------------------------------------------------------------------
      1          6           0        0.000000    0.000000    0.000000
      2          1           0        0.000000    0.000000    1.089268
      3          1           0        1.027015    0.000000   -0.363052
      4          1           0       -0.513508   -0.889421   -0.363052
      5          1           0       -0.513508    0.889421   -0.363052
      6          1           0        0.000000    0.000000    3.978927
 ---------------------------------------------------------------------

 SCF Done:  E(ULC-B+HF-LYP) =  -40.8835709703     A.U. after   10 cycles

 Alpha  occ. eigenvalues --  -10.11329  -0.85945  -0.52635  -0.52524  -0.52524
 Alpha  occ. eigenvalues --   -0.45011
 Alpha virt. eigenvalues --    0.06275   0.09656   0.09656   0.10663   0.22676
 Alpha virt. eigenvalues --    0.22676   0.22808   0.27323   0.36645   0.36837
 Alpha virt. eigenvalues --    0.36837   0.41863   0.41863   0.42658   0.62205

  Beta  occ. eigenvalues --  -10.11322  -0.85924  -0.52519  -0.52519  -0.52516
  Beta virt. eigenvalues --   -0.02315   0.06547   0.09568   0.09569   0.11062
  Beta virt. eigenvalues --    0.22664   0.22664   0.23140   0.27293   0.36826
  Beta virt. eigenvalues --    0.36827   0.39981   0.41846   0.41846   0.45843

 Mulliken atomic charges:
              1
     1  C   -0.665655
     2  H    0.163933
     3  H    0.166444
     4  H    0.166445
     5  H    0.166445
     6  H    0.002388
 Sum of Mulliken atomic charges =   0.00000

 Dipole moment (field-independent basis, Debye):
    X=              0.0000    Y=              0.0000    Z=              0.0116  Tot=              0.0116
 Quadrupole moment (field-independent basis, Debye-Ang):
   XX=             -9.9512   YY=             -9.9512   ZZ=             -9.8459
   XY=              0.0000   XZ=              0.0000   YZ=              0.0000

 Normal termination of Gaussian 09 at Wed Nov  3 01:31:42 2010.
