 Gaussian 09, Revision A.02,
 Gaussian 09:  EM64L-G09RevA.02 11-Jun-2009

 -------------------------------------------
 #p lc-blyp/6-311+g(3df,2p) nosymm scf=tight
 -------------------------------------------

 --------
 21 H_CH4
 --------
 Symbolic Z-matrix:
 Charge =  0 Multiplicity = 2

                          Input orientation:
 ---------------------------------------------------------------------
 Center     Atomic      Atomic             Coordinates (Angstroms)
 Number     Number       Type             X           Y           Z
 ---------------------------------------------------------------------
      1          6           0        0.000000    0.000000    0.000000
      2          1           0        0.000000    0.000000    1.090596
      3          1           0        1.027280    0.000000   -0.362750
      4          1           0       -0.513640   -0.889651   -0.362750
      5          1           0       -0.513640    0.889651   -0.362750
      6          1           0        0.000000    0.000000    3.110685
 ---------------------------------------------------------------------

 SCF Done:  E(ULC-B+HF-LYP) =  -40.8830251091     A.U. after   11 cycles

 Alpha  occ. eigenvalues --  -10.11401  -0.86099  -0.53822  -0.52597  -0.52597
 Alpha  occ. eigenvalues --   -0.44056
 Alpha virt. eigenvalues --    0.06575   0.09528   0.09528   0.11068   0.22581
 Alpha virt. eigenvalues --    0.22581   0.25541   0.26825   0.35737   0.36482
 Alpha virt. eigenvalues --    0.36482   0.41851   0.41852   0.44945   0.64339

  Beta  occ. eigenvalues --  -10.11341  -0.85921  -0.52602  -0.52557  -0.52557
  Beta virt. eigenvalues --   -0.02168   0.06970   0.09417   0.09417   0.11586
  Beta virt. eigenvalues --    0.22586   0.22586   0.25953   0.27121   0.36491
  Beta virt. eigenvalues --    0.36491   0.38798   0.41807   0.41807   0.48456

 Mulliken atomic charges:
              1
     1  C   -0.689356
     2  H    0.189518
     3  H    0.166544
     4  H    0.166545
     5  H    0.166545
     6  H    0.000205
 Sum of Mulliken atomic charges =   0.00000

 Dipole moment (field-independent basis, Debye):
    X=              0.0000    Y=              0.0000    Z=             -0.0432  Tot=              0.0432
 Quadrupole moment (field-independent basis, Debye-Ang):
   XX=             -9.9275   YY=             -9.9275   ZZ=            -10.1039
   XY=              0.0000   XZ=              0.0000   YZ=              0.0000

 Normal termination of Gaussian 09 at Wed Nov  3 01:19:55 2010.
