 Gaussian 09, Revision A.02,
 Gaussian 09:  EM64L-G09RevA.02 11-Jun-2009

 -------------------------------------------
 #p lc-blyp/6-311+g(3df,2p) nosymm scf=tight
 -------------------------------------------

 --------
 3 H2+CH3
 --------
 Symbolic Z-matrix:
 Charge =  0 Multiplicity = 2

                          Input orientation:
 ---------------------------------------------------------------------
 Center     Atomic      Atomic             Coordinates (Angstroms)
 Number     Number       Type             X           Y           Z
 ---------------------------------------------------------------------
      1          6           0        0.000000    0.000000    0.000000
      2          1           0        0.000000    0.000000    1.474134
      3          1           0        1.061317    0.000000   -0.219463
      4          1           0       -0.530659   -0.919128   -0.219463
      5          1           0       -0.530659    0.919128   -0.219463
      6          1           0        0.000000    0.000000    2.324876
 ---------------------------------------------------------------------

 SCF Done:  E(ULC-B+HF-LYP) =  -40.8609691434     A.U. after   12 cycles

 Alpha  occ. eigenvalues --  -10.14717  -0.87112  -0.59320  -0.55573  -0.55573
 Alpha  occ. eigenvalues --   -0.33588
 Alpha virt. eigenvalues --    0.06848   0.09064   0.09064   0.10215   0.22406
 Alpha virt. eigenvalues --    0.22406   0.22930   0.26640   0.35129   0.35130
 Alpha virt. eigenvalues --    0.40469   0.40469   0.42203   0.46763   0.62956

  Beta  occ. eigenvalues --  -10.13489  -0.83723  -0.54697  -0.54697  -0.53394
  Beta virt. eigenvalues --    0.01214   0.07789   0.09016   0.09016   0.09970
  Beta virt. eigenvalues --    0.22757   0.22757   0.24264   0.28321   0.35679
  Beta virt. eigenvalues --    0.35679   0.40566   0.40566   0.43601   0.48595

 Mulliken atomic charges:
              1
     1  C   -0.559876
     2  H    0.051346
     3  H    0.189996
     4  H    0.189992
     5  H    0.189992
     6  H   -0.061451
 Sum of Mulliken atomic charges =   0.00000

 Dipole moment (field-independent basis, Debye):
    X=              0.0000    Y=              0.0000    Z=             -0.6521  Tot=              0.6521
 Quadrupole moment (field-independent basis, Debye-Ang):
   XX=             -9.5021   YY=             -9.5021   ZZ=            -12.0618
   XY=              0.0000   XZ=              0.0000   YZ=              0.0000

 Normal termination of Gaussian 09 at Wed Nov  3 01:36:48 2010.
