 Gaussian 09, Revision A.02,
 Gaussian 09:  EM64L-G09RevA.02 11-Jun-2009

 -------------------------------------------
 #p lc-blyp/6-311+g(3df,2p) nosymm scf=tight
 -------------------------------------------

 --------
 36 H_CH4
 --------
 Symbolic Z-matrix:
 Charge =  0 Multiplicity = 2

                          Input orientation:
 ---------------------------------------------------------------------
 Center     Atomic      Atomic             Coordinates (Angstroms)
 Number     Number       Type             X           Y           Z
 ---------------------------------------------------------------------
      1          6           0        0.000000    0.000000    0.000000
      2          1           0        0.000000    0.000000    1.089282
      3          1           0        1.027022    0.000000   -0.363069
      4          1           0       -0.513511   -0.889427   -0.363069
      5          1           0       -0.513511    0.889427   -0.363069
      6          1           0        0.000000    0.000000    3.809338
 ---------------------------------------------------------------------

 SCF Done:  E(ULC-B+HF-LYP) =  -40.8836042419     A.U. after   10 cycles

 Alpha  occ. eigenvalues --  -10.11332  -0.85954  -0.52711  -0.52526  -0.52526
 Alpha  occ. eigenvalues --   -0.44970
 Alpha virt. eigenvalues --    0.06332   0.09640   0.09640   0.10790   0.22669
 Alpha virt. eigenvalues --    0.22669   0.23248   0.27221   0.36192   0.36817
 Alpha virt. eigenvalues --    0.36817   0.41859   0.41859   0.43305   0.63689

  Beta  occ. eigenvalues --  -10.11321  -0.85921  -0.52519  -0.52519  -0.52519
  Beta virt. eigenvalues --   -0.02337   0.06627   0.09543   0.09544   0.11218
  Beta virt. eigenvalues --    0.22656   0.22656   0.23596   0.27221   0.36805
  Beta virt. eigenvalues --    0.36805   0.39498   0.41840   0.41840   0.46516

 Mulliken atomic charges:
              1
     1  C   -0.668617
     2  H    0.166948
     3  H    0.166366
     4  H    0.166367
     5  H    0.166367
     6  H    0.002568
 Sum of Mulliken atomic charges =   0.00000

 Dipole moment (field-independent basis, Debye):
    X=              0.0000    Y=              0.0000    Z=              0.0093  Tot=              0.0093
 Quadrupole moment (field-independent basis, Debye-Ang):
   XX=             -9.9504   YY=             -9.9504   ZZ=             -9.8593
   XY=              0.0000   XZ=              0.0000   YZ=              0.0000

 Normal termination of Gaussian 09 at Wed Nov  3 01:28:03 2010.
