 Gaussian 09, Revision A.02,
 Gaussian 09:  EM64L-G09RevA.02 11-Jun-2009

 -------------------------------------------
 #p lc-blyp/6-311+g(3df,2p) nosymm scf=tight
 -------------------------------------------

 --------
 6 H2+CH3
 --------
 Symbolic Z-matrix:
 Charge =  0 Multiplicity = 2

                          Input orientation:
 ---------------------------------------------------------------------
 Center     Atomic      Atomic             Coordinates (Angstroms)
 Number     Number       Type             X           Y           Z
 ---------------------------------------------------------------------
      1          6           0        0.000000    0.000000    0.000000
      2          1           0        0.000000    0.000000    1.633244
      3          1           0        1.069258    0.000000   -0.164253
      4          1           0       -0.534629   -0.926005   -0.164253
      5          1           0       -0.534629    0.926005   -0.164253
      6          1           0        0.000000    0.000000    2.429979
 ---------------------------------------------------------------------

 SCF Done:  E(ULC-B+HF-LYP) =  -40.8637746768     A.U. after   12 cycles

 Alpha  occ. eigenvalues --  -10.14726  -0.86661  -0.58429  -0.55851  -0.55851
 Alpha  occ. eigenvalues --   -0.34135
 Alpha virt. eigenvalues --    0.06874   0.09033   0.09034   0.10510   0.21923
 Alpha virt. eigenvalues --    0.22717   0.22717   0.26001   0.35634   0.35634
 Alpha virt. eigenvalues --    0.40329   0.40329   0.43423   0.46473   0.61844

  Beta  occ. eigenvalues --  -10.13368  -0.82722  -0.54868  -0.54868  -0.53916
  Beta virt. eigenvalues --    0.01598   0.07676   0.08989   0.08989   0.10467
  Beta virt. eigenvalues --    0.23058   0.23058   0.23632   0.27566   0.36362
  Beta virt. eigenvalues --    0.36362   0.40446   0.40446   0.45520   0.47294

 Mulliken atomic charges:
              1
     1  C   -0.560896
     2  H    0.039183
     3  H    0.194753
     4  H    0.194751
     5  H    0.194751
     6  H   -0.062541
 Sum of Mulliken atomic charges =   0.00000

 Dipole moment (field-independent basis, Debye):
    X=              0.0000    Y=              0.0000    Z=             -0.5311  Tot=              0.5311
 Quadrupole moment (field-independent basis, Debye-Ang):
   XX=             -9.4245   YY=             -9.4245   ZZ=            -11.8845
   XY=              0.0000   XZ=              0.0000   YZ=              0.0000

 Normal termination of Gaussian 09 at Wed Nov  3 01:38:40 2010.
