 Gaussian 09, Revision A.02,
 Gaussian 09:  EM64L-G09RevA.02 11-Jun-2009

 -------------------------------------------
 #p lc-blyp/6-311+g(3df,2p) nosymm scf=tight
 -------------------------------------------

 --------
 44 H_CH4
 --------
 Symbolic Z-matrix:
 Charge =  0 Multiplicity = 2

                          Input orientation:
 ---------------------------------------------------------------------
 Center     Atomic      Atomic             Coordinates (Angstroms)
 Number     Number       Type             X           Y           Z
 ---------------------------------------------------------------------
      1          6           0        0.000000    0.000000    0.000000
      2          1           0        0.000000    0.000000    1.089267
      3          1           0        1.027015    0.000000   -0.363051
      4          1           0       -0.513507   -0.889421   -0.363051
      5          1           0       -0.513507    0.889421   -0.363051
      6          1           0        0.000000    0.000000    3.994149
 ---------------------------------------------------------------------

 SCF Done:  E(ULC-B+HF-LYP) =  -40.8835675278     A.U. after   10 cycles

 Alpha  occ. eigenvalues --  -10.11329  -0.85945  -0.52630  -0.52523  -0.52523
 Alpha  occ. eigenvalues --   -0.45013
 Alpha virt. eigenvalues --    0.06270   0.09657   0.09657   0.10652   0.22677
 Alpha virt. eigenvalues --    0.22677   0.22773   0.27332   0.36686   0.36838
 Alpha virt. eigenvalues --    0.36838   0.41864   0.41864   0.42602   0.62095

  Beta  occ. eigenvalues --  -10.11323  -0.85924  -0.52519  -0.52519  -0.52516
  Beta virt. eigenvalues --   -0.02312   0.06540   0.09570   0.09571   0.11048
  Beta virt. eigenvalues --    0.22664   0.22664   0.23104   0.27299   0.36828
  Beta virt. eigenvalues --    0.36828   0.40029   0.41847   0.41847   0.45782

 Mulliken atomic charges:
              1
     1  C   -0.665476
     2  H    0.163753
     3  H    0.166451
     4  H    0.166452
     5  H    0.166452
     6  H    0.002368
 Sum of Mulliken atomic charges =   0.00000

 Dipole moment (field-independent basis, Debye):
    X=              0.0000    Y=              0.0000    Z=              0.0117  Tot=              0.0117
 Quadrupole moment (field-independent basis, Debye-Ang):
   XX=             -9.9513   YY=             -9.9513   ZZ=             -9.8451
   XY=              0.0000   XZ=              0.0000   YZ=              0.0000

 Normal termination of Gaussian 09 at Wed Nov  3 01:32:14 2010.
