 Gaussian 09, Revision A.02,
 Gaussian 09:  EM64L-G09RevA.02 11-Jun-2009

 -------------------------------------------
 #p lc-blyp/6-311+g(3df,2p) nosymm scf=tight
 -------------------------------------------

 -------
 5 H_CH4
 -------
 Symbolic Z-matrix:
 Charge =  0 Multiplicity = 2

                          Input orientation:
 ---------------------------------------------------------------------
 Center     Atomic      Atomic             Coordinates (Angstroms)
 Number     Number       Type             X           Y           Z
 ---------------------------------------------------------------------
      1          6           0        0.000000    0.000000    0.000000
      2          1           0        0.000000    0.000000    1.233577
      3          1           0        1.043930    0.000000   -0.304454
      4          1           0       -0.521965   -0.904070   -0.304454
      5          1           0       -0.521965    0.904070   -0.304454
      6          1           0        0.000000    0.000000    2.259076
 ---------------------------------------------------------------------

 SCF Done:  E(ULC-B+HF-LYP) =  -40.8659463872     A.U. after   12 cycles

 Alpha  occ. eigenvalues --  -10.13781  -0.87596  -0.60080  -0.54538  -0.54538
 Alpha  occ. eigenvalues --   -0.35074
 Alpha virt. eigenvalues --    0.06785   0.09167   0.09167   0.10183   0.22042
 Alpha virt. eigenvalues --    0.22042   0.24395   0.28349   0.34781   0.34781
 Alpha virt. eigenvalues --    0.39778   0.40798   0.40798   0.46833   0.62519

  Beta  occ. eigenvalues --  -10.13025  -0.85568  -0.54021  -0.54021  -0.53463
  Beta virt. eigenvalues --    0.00360   0.07634   0.09083   0.09083   0.10189
  Beta virt. eigenvalues --    0.22289   0.22289   0.25099   0.29599   0.35097
  Beta virt. eigenvalues --    0.35097   0.40703   0.40809   0.40809   0.50206

 Mulliken atomic charges:
              1
     1  C   -0.630500
     2  H    0.150083
     3  H    0.178595
     4  H    0.178601
     5  H    0.178601
     6  H   -0.055380
 Sum of Mulliken atomic charges =   0.00000

 Dipole moment (field-independent basis, Debye):
    X=              0.0000    Y=              0.0000    Z=             -0.6827  Tot=              0.6827
 Quadrupole moment (field-independent basis, Debye-Ang):
   XX=             -9.6799   YY=             -9.6799   ZZ=            -12.0667
   XY=              0.0000   XZ=              0.0000   YZ=              0.0000

 Normal termination of Gaussian 09 at Wed Nov  3 01:10:18 2010.
