 Gaussian 09, Revision A.02,
 Gaussian 09:  EM64L-G09RevA.02 11-Jun-2009

 -------------------------------------------
 #p lc-blyp/6-311+g(3df,2p) nosymm scf=tight
 -------------------------------------------

 --------
 35 H_CH4
 --------
 Symbolic Z-matrix:
 Charge =  0 Multiplicity = 2

                          Input orientation:
 ---------------------------------------------------------------------
 Center     Atomic      Atomic             Coordinates (Angstroms)
 Number     Number       Type             X           Y           Z
 ---------------------------------------------------------------------
      1          6           0        0.000000    0.000000    0.000000
      2          1           0        0.000000    0.000000    1.089289
      3          1           0        1.027024    0.000000   -0.363073
      4          1           0       -0.513512   -0.889429   -0.363073
      5          1           0       -0.513512    0.889429   -0.363073
      6          1           0        0.000000    0.000000    3.768943
 ---------------------------------------------------------------------

 SCF Done:  E(ULC-B+HF-LYP) =  -40.8836097476     A.U. after   10 cycles

 Alpha  occ. eigenvalues --  -10.11333  -0.85956  -0.52735  -0.52527  -0.52527
 Alpha  occ. eigenvalues --   -0.44956
 Alpha virt. eigenvalues --    0.06346   0.09635   0.09635   0.10819   0.22666
 Alpha virt. eigenvalues --    0.22666   0.23366   0.27193   0.36093   0.36811
 Alpha virt. eigenvalues --    0.36811   0.41858   0.41858   0.43459   0.64103

  Beta  occ. eigenvalues --  -10.11321  -0.85921  -0.52520  -0.52519  -0.52519
  Beta virt. eigenvalues --   -0.02340   0.06646   0.09537   0.09537   0.11253
  Beta virt. eigenvalues --    0.22654   0.22654   0.23719   0.27203   0.36798
  Beta virt. eigenvalues --    0.36798   0.39397   0.41839   0.41839   0.46673

 Mulliken atomic charges:
              1
     1  C   -0.669588
     2  H    0.167946
     3  H    0.166349
     4  H    0.166350
     5  H    0.166350
     6  H    0.002593
 Sum of Mulliken atomic charges =   0.00000

 Dipole moment (field-independent basis, Debye):
    X=              0.0000    Y=              0.0000    Z=              0.0085  Tot=              0.0085
 Quadrupole moment (field-independent basis, Debye-Ang):
   XX=             -9.9501   YY=             -9.9501   ZZ=             -9.8638
   XY=              0.0000   XZ=              0.0000   YZ=              0.0000

 Normal termination of Gaussian 09 at Wed Nov  3 01:27:32 2010.
