 Gaussian 09, Revision A.02,
 Gaussian 09:  EM64L-G09RevA.02 11-Jun-2009

 -------------------------------------------
 #p lc-blyp/6-311+g(3df,2p) nosymm scf=tight
 -------------------------------------------

 --------
 13 H_CH4
 --------
 Symbolic Z-matrix:
 Charge =  0 Multiplicity = 2

                          Input orientation:
 ---------------------------------------------------------------------
 Center     Atomic      Atomic             Coordinates (Angstroms)
 Number     Number       Type             X           Y           Z
 ---------------------------------------------------------------------
      1          6           0        0.000000    0.000000    0.000000
      2          1           0        0.000000    0.000000    1.098378
      3          1           0        1.028737    0.000000   -0.358847
      4          1           0       -0.514368   -0.890912   -0.358847
      5          1           0       -0.514368    0.890912   -0.358847
      6          1           0        0.000000    0.000000    2.677488
 ---------------------------------------------------------------------

 SCF Done:  E(ULC-B+HF-LYP) =  -40.8800743211     A.U. after   12 cycles

 Alpha  occ. eigenvalues --  -10.11718  -0.86530  -0.56003  -0.52891  -0.52891
 Alpha  occ. eigenvalues --   -0.41832
 Alpha virt. eigenvalues --    0.06697   0.09407   0.09408   0.10894   0.22387
 Alpha virt. eigenvalues --    0.22387   0.25467   0.28046   0.35827   0.35828
 Alpha virt. eigenvalues --    0.37453   0.41630   0.41630   0.45343   0.63493

  Beta  occ. eigenvalues --  -10.11537  -0.86006  -0.52916  -0.52772  -0.52772
  Beta virt. eigenvalues --   -0.01564   0.07194   0.09306   0.09306   0.11431
  Beta virt. eigenvalues --    0.22439   0.22439   0.25965   0.28513   0.35926
  Beta virt. eigenvalues --    0.35926   0.39562   0.41578   0.41578   0.49543

 Mulliken atomic charges:
              1
     1  C   -0.700334
     2  H    0.208445
     3  H    0.168080
     4  H    0.168082
     5  H    0.168082
     6  H   -0.012354
 Sum of Mulliken atomic charges =   0.00000

 Dipole moment (field-independent basis, Debye):
    X=              0.0000    Y=              0.0000    Z=             -0.2014  Tot=              0.2014
 Quadrupole moment (field-independent basis, Debye-Ang):
   XX=             -9.8747   YY=             -9.8747   ZZ=            -10.6653
   XY=              0.0000   XZ=              0.0000   YZ=              0.0000

 Normal termination of Gaussian 09 at Wed Nov  3 01:15:17 2010.
