 Gaussian 09, Revision A.02,
 Gaussian 09:  EM64L-G09RevA.02 11-Jun-2009

 -------------------------------------------
 #p lc-blyp/6-311+g(3df,2p) nosymm scf=tight
 -------------------------------------------

 --------
 24 H_CH4
 --------
 Symbolic Z-matrix:
 Charge =  0 Multiplicity = 2

                          Input orientation:
 ---------------------------------------------------------------------
 Center     Atomic      Atomic             Coordinates (Angstroms)
 Number     Number       Type             X           Y           Z
 ---------------------------------------------------------------------
      1          6           0        0.000000    0.000000    0.000000
      2          1           0        0.000000    0.000000    1.089909
      3          1           0        1.027149    0.000000   -0.362989
      4          1           0       -0.513574   -0.889537   -0.362989
      5          1           0       -0.513574    0.889537   -0.362989
      6          1           0        0.000000    0.000000    3.262050
 ---------------------------------------------------------------------

 SCF Done:  E(ULC-B+HF-LYP) =  -40.8833649013     A.U. after   11 cycles

 Alpha  occ. eigenvalues --  -10.11367  -0.86039  -0.53404  -0.52563  -0.52563
 Alpha  occ. eigenvalues --   -0.44430
 Alpha virt. eigenvalues --    0.06524   0.09559   0.09559   0.11058   0.22614
 Alpha virt. eigenvalues --    0.22614   0.25119   0.26804   0.35546   0.36611
 Alpha virt. eigenvalues --    0.36611   0.41865   0.41865   0.44797   0.64489

  Beta  occ. eigenvalues --  -10.11326  -0.85915  -0.52564  -0.52536  -0.52536
  Beta virt. eigenvalues --   -0.02258   0.06894   0.09448   0.09448   0.11558
  Beta virt. eigenvalues --    0.22611   0.22611   0.25531   0.27014   0.36607
  Beta virt. eigenvalues --    0.36607   0.38741   0.41829   0.41829   0.48176

 Mulliken atomic charges:
              1
     1  C   -0.685597
     2  H    0.184970
     3  H    0.166367
     4  H    0.166368
     5  H    0.166368
     6  H    0.001524
 Sum of Mulliken atomic charges =   0.00000

 Dipole moment (field-independent basis, Debye):
    X=              0.0000    Y=              0.0000    Z=             -0.0205  Tot=              0.0205
 Quadrupole moment (field-independent basis, Debye-Ang):
   XX=             -9.9365   YY=             -9.9365   ZZ=            -10.0070
   XY=              0.0000   XZ=              0.0000   YZ=              0.0000

 Normal termination of Gaussian 09 at Wed Nov  3 01:21:38 2010.
