 Gaussian 09, Revision A.02,
 Gaussian 09:  EM64L-G09RevA.02 11-Jun-2009

 -------------------------------------------
 #p lc-blyp/6-311+g(3df,2p) nosymm scf=tight
 -------------------------------------------

 ---------
 28 H2+CH3
 ---------
 Symbolic Z-matrix:
 Charge =  0 Multiplicity = 2

                          Input orientation:
 ---------------------------------------------------------------------
 Center     Atomic      Atomic             Coordinates (Angstroms)
 Number     Number       Type             X           Y           Z
 ---------------------------------------------------------------------
      1          6           0        0.000000    0.000000    0.000000
      2          1           0        0.000000    0.000000    2.858909
      3          1           0        1.079242    0.000000   -0.004247
      4          1           0       -0.539621   -0.934651   -0.004247
      5          1           0       -0.539621    0.934651   -0.004247
      6          1           0        0.000000    0.000000    3.602753
 ---------------------------------------------------------------------

 SCF Done:  E(ULC-B+HF-LYP) =  -40.8752576269     A.U. after   11 cycles

 Alpha  occ. eigenvalues --  -10.14737  -0.85425  -0.56400  -0.55897  -0.55897
 Alpha  occ. eigenvalues --   -0.36614
 Alpha virt. eigenvalues --    0.06905   0.09203   0.09203   0.12753   0.16440
 Alpha virt. eigenvalues --    0.23375   0.23375   0.24273   0.36317   0.38556
 Alpha virt. eigenvalues --    0.38557   0.40338   0.40338   0.48310   0.62080

  Beta  occ. eigenvalues --  -10.13316  -0.80823  -0.56152  -0.54835  -0.54835
  Beta virt. eigenvalues --    0.01540   0.06874   0.09043   0.09043   0.14322
  Beta virt. eigenvalues --    0.17867   0.23612   0.23612   0.25238   0.36719
  Beta virt. eigenvalues --    0.39719   0.39719   0.40343   0.40343   0.50002

 Mulliken atomic charges:
              1
     1  C   -0.572772
     2  H   -0.004305
     3  H    0.192928
     4  H    0.192927
     5  H    0.192927
     6  H   -0.001706
 Sum of Mulliken atomic charges =   0.00000

 Dipole moment (field-independent basis, Debye):
    X=              0.0000    Y=              0.0000    Z=             -0.0748  Tot=              0.0748
 Quadrupole moment (field-independent basis, Debye-Ang):
   XX=             -9.4611   YY=             -9.4611   ZZ=            -11.0532
   XY=              0.0000   XZ=              0.0000   YZ=              0.0000

 Normal termination of Gaussian 09 at Wed Nov  3 01:51:53 2010.
