 Gaussian 09, Revision A.02,
 Gaussian 09:  EM64L-G09RevA.02 11-Jun-2009

 -------------------------------------------
 #p lc-blyp/6-311+g(3df,2p) nosymm scf=tight
 -------------------------------------------

 -------
 8 H_CH4
 -------
 Symbolic Z-matrix:
 Charge =  0 Multiplicity = 2

                          Input orientation:
 ---------------------------------------------------------------------
 Center     Atomic      Atomic             Coordinates (Angstroms)
 Number     Number       Type             X           Y           Z
 ---------------------------------------------------------------------
      1          6           0        0.000000    0.000000    0.000000
      2          1           0        0.000000    0.000000    1.130956
      3          1           0        1.033610    0.000000   -0.343192
      4          1           0       -0.516805   -0.895133   -0.343192
      5          1           0       -0.516805    0.895133   -0.343192
      6          1           0        0.000000    0.000000    2.373900
 ---------------------------------------------------------------------

 SCF Done:  E(ULC-B+HF-LYP) =  -40.8738225255     A.U. after   12 cycles

 Alpha  occ. eigenvalues --  -10.12537  -0.87285  -0.58710  -0.53591  -0.53591
 Alpha  occ. eigenvalues --   -0.38342
 Alpha virt. eigenvalues --    0.06745   0.09279   0.09279   0.10507   0.22113
 Alpha virt. eigenvalues --    0.22113   0.25014   0.28859   0.35108   0.35108
 Alpha virt. eigenvalues --    0.39010   0.41187   0.41187   0.46101   0.62722

  Beta  occ. eigenvalues --  -10.12120  -0.86114  -0.53506  -0.53314  -0.53314
  Beta virt. eigenvalues --   -0.00526   0.07399   0.09184   0.09184   0.10897
  Beta virt. eigenvalues --    0.22252   0.22252   0.25569   0.29614   0.35323
  Beta virt. eigenvalues --    0.35323   0.40092   0.41159   0.41159   0.50370

 Mulliken atomic charges:
              1
     1  C   -0.695144
     2  H    0.218413
     3  H    0.171639
     4  H    0.171643
     5  H    0.171643
     6  H   -0.038193
 Sum of Mulliken atomic charges =   0.00000

 Dipole moment (field-independent basis, Debye):
    X=              0.0000    Y=              0.0000    Z=             -0.4775  Tot=              0.4775
 Quadrupole moment (field-independent basis, Debye-Ang):
   XX=             -9.7846   YY=             -9.7846   ZZ=            -11.4880
   XY=              0.0000   XZ=              0.0000   YZ=              0.0000

 Normal termination of Gaussian 09 at Wed Nov  3 01:12:10 2010.
