 Gaussian 09, Revision A.02,
 Gaussian 09:  EM64L-G09RevA.02 11-Jun-2009

 -------------------------------------------
 #p lc-blyp/6-311+g(3df,2p) nosymm scf=tight
 -------------------------------------------

 --------
 2 H2+CH3
 --------
 Symbolic Z-matrix:
 Charge =  0 Multiplicity = 2

                          Input orientation:
 ---------------------------------------------------------------------
 Center     Atomic      Atomic             Coordinates (Angstroms)
 Number     Number       Type             X           Y           Z
 ---------------------------------------------------------------------
      1          6           0        0.000000    0.000000    0.000000
      2          1           0        0.000000    0.000000    1.407334
      3          1           0        1.057146    0.000000   -0.243184
      4          1           0       -0.528573   -0.915515   -0.243184
      5          1           0       -0.528573    0.915515   -0.243184
      6          1           0        0.000000    0.000000    2.297627
 ---------------------------------------------------------------------

 SCF Done:  E(ULC-B+HF-LYP) =  -40.8608372067     A.U. after   13 cycles

 Alpha  occ. eigenvalues --  -10.14646  -0.87284  -0.59596  -0.55382  -0.55382
 Alpha  occ. eigenvalues --   -0.33628
 Alpha virt. eigenvalues --    0.06833   0.09083   0.09083   0.10147   0.22275
 Alpha virt. eigenvalues --    0.22276   0.23344   0.26983   0.34971   0.34971
 Alpha virt. eigenvalues --    0.40539   0.40539   0.41458   0.46884   0.62795

  Beta  occ. eigenvalues --  -10.13519  -0.84231  -0.54585  -0.54585  -0.53166
  Beta virt. eigenvalues --    0.00956   0.07783   0.09027   0.09028   0.09878
  Beta virt. eigenvalues --    0.22613   0.22613   0.24497   0.28646   0.35445
  Beta virt. eigenvalues --    0.35445   0.40615   0.40615   0.42693   0.49115

 Mulliken atomic charges:
              1
     1  C   -0.568459
     2  H    0.066661
     3  H    0.187453
     4  H    0.187451
     5  H    0.187451
     6  H   -0.060556
 Sum of Mulliken atomic charges =   0.00000

 Dipole moment (field-independent basis, Debye):
    X=              0.0000    Y=              0.0000    Z=             -0.6947  Tot=              0.6947
 Quadrupole moment (field-independent basis, Debye-Ang):
   XX=             -9.5525   YY=             -9.5525   ZZ=            -12.1321
   XY=              0.0000   XZ=              0.0000   YZ=              0.0000

 Normal termination of Gaussian 09 at Wed Nov  3 01:36:10 2010.
