 Gaussian 09, Revision A.02,
 Gaussian 09:  EM64L-G09RevA.02 11-Jun-2009

 -------------------------------------------
 #p lc-blyp/6-311+g(3df,2p) nosymm scf=tight
 -------------------------------------------

 ---------
 21 H2+CH3
 ---------
 Symbolic Z-matrix:
 Charge =  0 Multiplicity = 2

                          Input orientation:
 ---------------------------------------------------------------------
 Center     Atomic      Atomic             Coordinates (Angstroms)
 Number     Number       Type             X           Y           Z
 ---------------------------------------------------------------------
      1          6           0        0.000000    0.000000    0.000000
      2          1           0        0.000000    0.000000    2.524002
      3          1           0        1.079255    0.000000   -0.007404
      4          1           0       -0.539628   -0.934663   -0.007404
      5          1           0       -0.539628    0.934663   -0.007404
      6          1           0        0.000000    0.000000    3.269174
 ---------------------------------------------------------------------

 SCF Done:  E(ULC-B+HF-LYP) =  -40.8749693709     A.U. after   11 cycles

 Alpha  occ. eigenvalues --  -10.14735  -0.85520  -0.56466  -0.55941  -0.55941
 Alpha  occ. eigenvalues --   -0.36486
 Alpha virt. eigenvalues --    0.06945   0.09141   0.09141   0.12354   0.17285
 Alpha virt. eigenvalues --    0.23337   0.23337   0.24649   0.37693   0.37984
 Alpha virt. eigenvalues --    0.37984   0.40302   0.40302   0.49639   0.59938

  Beta  occ. eigenvalues --  -10.13311  -0.80926  -0.55905  -0.54880  -0.54880
  Beta virt. eigenvalues --    0.01651   0.07032   0.09007   0.09007   0.13351
  Beta virt. eigenvalues --    0.19209   0.23581   0.23582   0.25692   0.38426
  Beta virt. eigenvalues --    0.39132   0.39132   0.40296   0.40296   0.51266

 Mulliken atomic charges:
              1
     1  C   -0.582997
     2  H    0.004714
     3  H    0.196858
     4  H    0.196857
     5  H    0.196857
     6  H   -0.012289
 Sum of Mulliken atomic charges =   0.00000

 Dipole moment (field-independent basis, Debye):
    X=              0.0000    Y=              0.0000    Z=             -0.1009  Tot=              0.1009
 Quadrupole moment (field-independent basis, Debye-Ang):
   XX=             -9.4428   YY=             -9.4428   ZZ=            -11.1648
   XY=              0.0000   XZ=              0.0000   YZ=              0.0000

 Normal termination of Gaussian 09 at Wed Nov  3 01:47:53 2010.
