 Gaussian 09, Revision A.02,
 Gaussian 09:  EM64L-G09RevA.02 11-Jun-2009

 -------------------------------------------
 #p lc-blyp/6-311+g(3df,2p) nosymm scf=tight
 -------------------------------------------

 --------
 31 H_CH4
 --------
 Symbolic Z-matrix:
 Charge =  0 Multiplicity = 2

                          Input orientation:
 ---------------------------------------------------------------------
 Center     Atomic      Atomic             Coordinates (Angstroms)
 Number     Number       Type             X           Y           Z
 ---------------------------------------------------------------------
      1          6           0        0.000000    0.000000    0.000000
      2          1           0        0.000000    0.000000    1.089361
      3          1           0        1.027042    0.000000   -0.363087
      4          1           0       -0.513521   -0.889444   -0.363087
      5          1           0       -0.513521    0.889444   -0.363087
      6          1           0        0.000000    0.000000    3.593209
 ---------------------------------------------------------------------

 SCF Done:  E(ULC-B+HF-LYP) =  -40.8836103065     A.U. after   10 cycles

 Alpha  occ. eigenvalues --  -10.11338  -0.85972  -0.52877  -0.52533  -0.52533
 Alpha  occ. eigenvalues --   -0.44859
 Alpha virt. eigenvalues --    0.06408   0.09613   0.09613   0.10932   0.22654
 Alpha virt. eigenvalues --    0.22654   0.23934   0.27059   0.35740   0.36771
 Alpha virt. eigenvalues --    0.36771   0.41861   0.41861   0.44073   0.64647

  Beta  occ. eigenvalues --  -10.11320  -0.85918  -0.52527  -0.52520  -0.52520
  Beta virt. eigenvalues --   -0.02340   0.06731   0.09508   0.09508   0.11391
  Beta virt. eigenvalues --    0.22644   0.22644   0.24312   0.27121   0.36757
  Beta virt. eigenvalues --    0.36757   0.39036   0.41837   0.41837   0.47311

 Mulliken atomic charges:
              1
     1  C   -0.674823
     2  H    0.173372
     3  H    0.166293
     4  H    0.166294
     5  H    0.166294
     6  H    0.002569
 Sum of Mulliken atomic charges =   0.00000

 Dipole moment (field-independent basis, Debye):
    X=              0.0000    Y=              0.0000    Z=              0.0034  Tot=              0.0034
 Quadrupole moment (field-independent basis, Debye-Ang):
   XX=             -9.9475   YY=             -9.9475   ZZ=             -9.8921
   XY=              0.0000   XZ=              0.0000   YZ=              0.0000

 Normal termination of Gaussian 09 at Wed Nov  3 01:25:27 2010.
