 Gaussian 09, Revision A.02,
 Gaussian 09:  EM64L-G09RevA.02 11-Jun-2009

 -------------------------------------------
 #p lc-blyp/6-311+g(3df,2p) nosymm scf=tight
 -------------------------------------------

 --------
 41 H_CH4
 --------
 Symbolic Z-matrix:
 Charge =  0 Multiplicity = 2

                          Input orientation:
 ---------------------------------------------------------------------
 Center     Atomic      Atomic             Coordinates (Angstroms)
 Number     Number       Type             X           Y           Z
 ---------------------------------------------------------------------
      1          6           0        0.000000    0.000000    0.000000
      2          1           0        0.000000    0.000000    1.089269
      3          1           0        1.027016    0.000000   -0.363056
      4          1           0       -0.513508   -0.889422   -0.363056
      5          1           0       -0.513508    0.889422   -0.363056
      6          1           0        0.000000    0.000000    3.943722
 ---------------------------------------------------------------------

 SCF Done:  E(ULC-B+HF-LYP) =  -40.8835787514     A.U. after   10 cycles

 Alpha  occ. eigenvalues --  -10.11330  -0.85947  -0.52648  -0.52524  -0.52524
 Alpha  occ. eigenvalues --   -0.45005
 Alpha virt. eigenvalues --    0.06286   0.09653   0.09653   0.10690   0.22675
 Alpha virt. eigenvalues --    0.22675   0.22891   0.27304   0.36548   0.36834
 Alpha virt. eigenvalues --    0.36834   0.41862   0.41862   0.42790   0.62475

  Beta  occ. eigenvalues --  -10.11322  -0.85923  -0.52519  -0.52519  -0.52516
  Beta virt. eigenvalues --   -0.02320   0.06563   0.09563   0.09564   0.11095
  Beta virt. eigenvalues --    0.22662   0.22662   0.23226   0.27279   0.36823
  Beta virt. eigenvalues --    0.36823   0.39874   0.41844   0.41844   0.45983

 Mulliken atomic charges:
              1
     1  C   -0.666123
     2  H    0.164405
     3  H    0.166428
     4  H    0.166428
     5  H    0.166428
     6  H    0.002434
 Sum of Mulliken atomic charges =   0.00000

 Dipole moment (field-independent basis, Debye):
    X=              0.0000    Y=              0.0000    Z=              0.0112  Tot=              0.0112
 Quadrupole moment (field-independent basis, Debye-Ang):
   XX=             -9.9512   YY=             -9.9512   ZZ=             -9.8480
   XY=              0.0000   XZ=              0.0000   YZ=              0.0000

 Normal termination of Gaussian 09 at Wed Nov  3 01:30:40 2010.
