 Gaussian 09, Revision A.02,
 Gaussian 09:  EM64L-G09RevA.02 11-Jun-2009

 -------------------------------------------
 #p lc-blyp/6-311+g(3df,2p) nosymm scf=tight
 -------------------------------------------

 ---------
 27 H2+CH3
 ---------
 Symbolic Z-matrix:
 Charge =  0 Multiplicity = 2

                          Input orientation:
 ---------------------------------------------------------------------
 Center     Atomic      Atomic             Coordinates (Angstroms)
 Number     Number       Type             X           Y           Z
 ---------------------------------------------------------------------
      1          6           0        0.000000    0.000000    0.000000
      2          1           0        0.000000    0.000000    2.814225
      3          1           0        1.079246    0.000000   -0.004413
      4          1           0       -0.539623   -0.934655   -0.004413
      5          1           0       -0.539623    0.934655   -0.004413
      6          1           0        0.000000    0.000000    3.558184
 ---------------------------------------------------------------------

 SCF Done:  E(ULC-B+HF-LYP) =  -40.8752555346     A.U. after   11 cycles

 Alpha  occ. eigenvalues --  -10.14738  -0.85434  -0.56402  -0.55902  -0.55902
 Alpha  occ. eigenvalues --   -0.36606
 Alpha virt. eigenvalues --    0.06911   0.09195   0.09195   0.12721   0.16518
 Alpha virt. eigenvalues --    0.23371   0.23371   0.24322   0.36456   0.38483
 Alpha virt. eigenvalues --    0.38483   0.40335   0.40335   0.48561   0.61731

  Beta  occ. eigenvalues --  -10.13317  -0.80833  -0.56126  -0.54840  -0.54840
  Beta virt. eigenvalues --    0.01552   0.06893   0.09038   0.09038   0.14196
  Beta virt. eigenvalues --    0.18034   0.23609   0.23609   0.25297   0.36897
  Beta virt. eigenvalues --    0.39644   0.39644   0.40337   0.40337   0.50254

 Mulliken atomic charges:
              1
     1  C   -0.573845
     2  H   -0.003550
     3  H    0.193368
     4  H    0.193366
     5  H    0.193366
     6  H   -0.002705
 Sum of Mulliken atomic charges =   0.00000

 Dipole moment (field-independent basis, Debye):
    X=              0.0000    Y=              0.0000    Z=             -0.0774  Tot=              0.0774
 Quadrupole moment (field-independent basis, Debye-Ang):
   XX=             -9.4594   YY=             -9.4594   ZZ=            -11.0645
   XY=              0.0000   XZ=              0.0000   YZ=              0.0000

 Normal termination of Gaussian 09 at Wed Nov  3 01:51:19 2010.
