 Gaussian 09, Revision A.02,
 Gaussian 09:  EM64L-G09RevA.02 11-Jun-2009

 -------------------------------------------
 #p lc-blyp/6-311+g(3df,2p) nosymm scf=tight
 -------------------------------------------

 -------
 2 H_CH4
 -------
 Symbolic Z-matrix:
 Charge =  0 Multiplicity = 2

                          Input orientation:
 ---------------------------------------------------------------------
 Center     Atomic      Atomic             Coordinates (Angstroms)
 Number     Number       Type             X           Y           Z
 ---------------------------------------------------------------------
      1          6           0        0.000000    0.000000    0.000000
      2          1           0        0.000000    0.000000    1.390534
      3          1           0        1.056013    0.000000   -0.249141
      4          1           0       -0.528007   -0.914534   -0.249141
      5          1           0       -0.528007    0.914534   -0.249141
      6          1           0        0.000000    0.000000    2.290964
 ---------------------------------------------------------------------

 SCF Done:  E(ULC-B+HF-LYP) =  -40.8609676291     A.U. after   13 cycles

 Alpha  occ. eigenvalues --  -10.14608  -0.87324  -0.59676  -0.55322  -0.55322
 Alpha  occ. eigenvalues --   -0.33669
 Alpha virt. eigenvalues --    0.06829   0.09089   0.09089   0.10136   0.22246
 Alpha virt. eigenvalues --    0.22246   0.23451   0.27089   0.34937   0.34937
 Alpha virt. eigenvalues --    0.40559   0.40559   0.41276   0.46904   0.62758

  Beta  occ. eigenvalues --  -10.13510  -0.84361  -0.54548  -0.54548  -0.53149
  Beta virt. eigenvalues --    0.00898   0.07778   0.09031   0.09031   0.09871
  Beta virt. eigenvalues --    0.22578   0.22578   0.24555   0.28736   0.35393
  Beta virt. eigenvalues --    0.35393   0.40629   0.40629   0.42472   0.49239

 Mulliken atomic charges:
              1
     1  C   -0.571750
     2  H    0.071850
     3  H    0.186727
     4  H    0.186726
     5  H    0.186726
     6  H   -0.060280
 Sum of Mulliken atomic charges =   0.00000

 Dipole moment (field-independent basis, Debye):
    X=              0.0000    Y=              0.0000    Z=             -0.7014  Tot=              0.7014
 Quadrupole moment (field-independent basis, Debye-Ang):
   XX=             -9.5648   YY=             -9.5648   ZZ=            -12.1429
   XY=              0.0000   XZ=              0.0000   YZ=              0.0000

 Normal termination of Gaussian 09 at Wed Nov  3 01:08:23 2010.
