 Gaussian 09, Revision A.02,
 Gaussian 09:  EM64L-G09RevA.02 11-Jun-2009

 -------------------------------------------
 #p lc-blyp/6-311+g(3df,2p) nosymm scf=tight
 -------------------------------------------

 --------
 11 H_CH4
 --------
 Symbolic Z-matrix:
 Charge =  0 Multiplicity = 2

                          Input orientation:
 ---------------------------------------------------------------------
 Center     Atomic      Atomic             Coordinates (Angstroms)
 Number     Number       Type             X           Y           Z
 ---------------------------------------------------------------------
      1          6           0        0.000000    0.000000    0.000000
      2          1           0        0.000000    0.000000    1.104842
      3          1           0        1.029820    0.000000   -0.355556
      4          1           0       -0.514910   -0.891851   -0.355556
      5          1           0       -0.514910    0.891851   -0.355556
      6          1           0        0.000000    0.000000    2.562093
 ---------------------------------------------------------------------

 SCF Done:  E(ULC-B+HF-LYP) =  -40.8783651876     A.U. after   12 cycles

 Alpha  occ. eigenvalues --  -10.11924  -0.86758  -0.56899  -0.53074  -0.53074
 Alpha  occ. eigenvalues --   -0.40789
 Alpha virt. eigenvalues --    0.06719   0.09365   0.09365   0.10781   0.22297
 Alpha virt. eigenvalues --    0.22297   0.25322   0.28412   0.35577   0.35577
 Alpha virt. eigenvalues --    0.38100   0.41498   0.41498   0.45534   0.63198

  Beta  occ. eigenvalues --  -10.11679  -0.86055  -0.53094  -0.52913  -0.52913
  Beta virt. eigenvalues --   -0.01261   0.07259   0.09267   0.09267   0.11294
  Beta virt. eigenvalues --    0.22374   0.22374   0.25844   0.28951   0.35714
  Beta virt. eigenvalues --    0.35714   0.39805   0.41452   0.41453   0.49896

 Mulliken atomic charges:
              1
     1  C   -0.702968
     2  H    0.216034
     3  H    0.168983
     4  H    0.168985
     5  H    0.168985
     6  H   -0.020020
 Sum of Mulliken atomic charges =   0.00000

 Dipole moment (field-independent basis, Debye):
    X=              0.0000    Y=              0.0000    Z=             -0.2837  Tot=              0.2837
 Quadrupole moment (field-independent basis, Debye-Ang):
   XX=             -9.8490   YY=             -9.8490   ZZ=            -10.9218
   XY=              0.0000   XZ=              0.0000   YZ=              0.0000

 Normal termination of Gaussian 09 at Wed Nov  3 01:14:02 2010.
