 Gaussian 09, Revision A.02,
 Gaussian 09:  EM64L-G09RevA.02 11-Jun-2009

 -------------------------------------------
 #p lc-blyp/6-311+g(3df,2p) nosymm scf=tight
 -------------------------------------------

 ---------
 19 H2+CH3
 ---------
 Symbolic Z-matrix:
 Charge =  0 Multiplicity = 2

                          Input orientation:
 ---------------------------------------------------------------------
 Center     Atomic      Atomic             Coordinates (Angstroms)
 Number     Number       Type             X           Y           Z
 ---------------------------------------------------------------------
      1          6           0        0.000000    0.000000    0.000000
      2          1           0        0.000000    0.000000    2.417970
      3          1           0        1.079239    0.000000   -0.010536
      4          1           0       -0.539620   -0.934649   -0.010536
      5          1           0       -0.539620    0.934649   -0.010536
      6          1           0        0.000000    0.000000    3.163937
 ---------------------------------------------------------------------

 SCF Done:  E(ULC-B+HF-LYP) =  -40.8746688053     A.U. after   11 cycles

 Alpha  occ. eigenvalues --  -10.14728  -0.85568  -0.56519  -0.55959  -0.55959
 Alpha  occ. eigenvalues --   -0.36398
 Alpha virt. eigenvalues --    0.06954   0.09121   0.09121   0.12172   0.17669
 Alpha virt. eigenvalues --    0.23319   0.23319   0.24766   0.37794   0.37794
 Alpha virt. eigenvalues --    0.38306   0.40282   0.40282   0.49732   0.59554

  Beta  occ. eigenvalues --  -10.13303  -0.80982  -0.55793  -0.54899  -0.54899
  Beta virt. eigenvalues --    0.01693   0.07091   0.08996   0.08996   0.13040
  Beta virt. eigenvalues --    0.19680   0.23567   0.23567   0.25838   0.38936
  Beta virt. eigenvalues --    0.38936   0.39159   0.40278   0.40278   0.51285

 Mulliken atomic charges:
              1
     1  C   -0.586172
     2  H    0.009397
     3  H    0.198091
     4  H    0.198091
     5  H    0.198091
     6  H   -0.017498
 Sum of Mulliken atomic charges =   0.00000

 Dipole moment (field-independent basis, Debye):
    X=              0.0000    Y=              0.0000    Z=             -0.1155  Tot=              0.1155
 Quadrupole moment (field-independent basis, Debye-Ang):
   XX=             -9.4341   YY=             -9.4341   ZZ=            -11.2171
   XY=              0.0000   XZ=              0.0000   YZ=              0.0000

 Normal termination of Gaussian 09 at Wed Nov  3 01:46:44 2010.
