 Gaussian 09, Revision A.02,
 Gaussian 09:  EM64L-G09RevA.02 11-Jun-2009

 -------------------------------------------
 #p lc-blyp/6-311+g(3df,2p) nosymm scf=tight
 -------------------------------------------

 ---------
 31 H2+CH3
 ---------
 Symbolic Z-matrix:
 Charge =  0 Multiplicity = 2

                          Input orientation:
 ---------------------------------------------------------------------
 Center     Atomic      Atomic             Coordinates (Angstroms)
 Number     Number       Type             X           Y           Z
 ---------------------------------------------------------------------
      1          6           0        0.000000    0.000000    0.000000
      2          1           0        0.000000    0.000000    2.987415
      3          1           0        1.079228    0.000000   -0.003894
      4          1           0       -0.539614   -0.934639   -0.003894
      5          1           0       -0.539614    0.934639   -0.003894
      6          1           0        0.000000    0.000000    3.730994
 ---------------------------------------------------------------------

 SCF Done:  E(ULC-B+HF-LYP) =  -40.8752311526     A.U. after   11 cycles

 Alpha  occ. eigenvalues --  -10.14732  -0.85401  -0.56401  -0.55884  -0.55884
 Alpha  occ. eigenvalues --   -0.36627
 Alpha virt. eigenvalues --    0.06888   0.09226   0.09226   0.12802   0.16274
 Alpha virt. eigenvalues --    0.23386   0.23386   0.24135   0.35987   0.38756
 Alpha virt. eigenvalues --    0.38756   0.40346   0.40347   0.47500   0.62897

  Beta  occ. eigenvalues --  -10.13312  -0.80800  -0.56221  -0.54822  -0.54822
  Beta virt. eigenvalues --    0.01507   0.06823   0.09057   0.09057   0.14677
  Beta virt. eigenvalues --    0.17410   0.23621   0.23621   0.25072   0.36284
  Beta virt. eigenvalues --    0.39917   0.39917   0.40367   0.40367   0.49184

 Mulliken atomic charges:
              1
     1  C   -0.570328
     2  H   -0.005887
     3  H    0.191864
     4  H    0.191866
     5  H    0.191866
     6  H    0.000619
 Sum of Mulliken atomic charges =   0.00000

 Dipole moment (field-independent basis, Debye):
    X=              0.0000    Y=              0.0000    Z=             -0.0680  Tot=              0.0680
 Quadrupole moment (field-independent basis, Debye-Ang):
   XX=             -9.4654   YY=             -9.4654   ZZ=            -11.0255
   XY=              0.0000   XZ=              0.0000   YZ=              0.0000

 Normal termination of Gaussian 09 at Wed Nov  3 01:53:36 2010.
