 Gaussian 09, Revision A.02,
 Gaussian 09:  EM64L-G09RevA.02 11-Jun-2009

 -------------------------------------------
 #p lc-blyp/6-311+g(3df,2p) nosymm scf=tight
 -------------------------------------------

 --------
 37 H_CH4
 --------
 Symbolic Z-matrix:
 Charge =  0 Multiplicity = 2

                          Input orientation:
 ---------------------------------------------------------------------
 Center     Atomic      Atomic             Coordinates (Angstroms)
 Number     Number       Type             X           Y           Z
 ---------------------------------------------------------------------
      1          6           0        0.000000    0.000000    0.000000
      2          1           0        0.000000    0.000000    1.089277
      3          1           0        1.027020    0.000000   -0.363065
      4          1           0       -0.513510   -0.889426   -0.363065
      5          1           0       -0.513510    0.889426   -0.363065
      6          1           0        0.000000    0.000000    3.844085
 ---------------------------------------------------------------------

 SCF Done:  E(ULC-B+HF-LYP) =  -40.8835985345     A.U. after   10 cycles

 Alpha  occ. eigenvalues --  -10.11331  -0.85952  -0.52693  -0.52525  -0.52525
 Alpha  occ. eigenvalues --   -0.44981
 Alpha virt. eigenvalues --    0.06320   0.09643   0.09643   0.10765   0.22670
 Alpha virt. eigenvalues --    0.22670   0.23150   0.27244   0.36280   0.36822
 Alpha virt. eigenvalues --    0.36822   0.41859   0.41859   0.43172   0.63349

  Beta  occ. eigenvalues --  -10.11321  -0.85922  -0.52519  -0.52519  -0.52518
  Beta virt. eigenvalues --   -0.02333   0.06610   0.09549   0.09549   0.11187
  Beta virt. eigenvalues --    0.22658   0.22658   0.23494   0.27236   0.36810
  Beta virt. eigenvalues --    0.36810   0.39589   0.41841   0.41841   0.46379

 Mulliken atomic charges:
              1
     1  C   -0.667862
     2  H    0.166175
     3  H    0.166382
     4  H    0.166383
     5  H    0.166383
     6  H    0.002540
 Sum of Mulliken atomic charges =   0.00000

 Dipole moment (field-independent basis, Debye):
    X=              0.0000    Y=              0.0000    Z=              0.0099  Tot=              0.0099
 Quadrupole moment (field-independent basis, Debye-Ang):
   XX=             -9.9507   YY=             -9.9507   ZZ=             -9.8559
   XY=              0.0000   XZ=              0.0000   YZ=              0.0000

 Normal termination of Gaussian 09 at Wed Nov  3 01:28:34 2010.
