 Gaussian 09, Revision A.02,
 Gaussian 09:  EM64L-G09RevA.02 11-Jun-2009

 -------------------------------------------
 #p lc-blyp/6-311+g(3df,2p) nosymm scf=tight
 -------------------------------------------

 -------
 4 H_CH4
 -------
 Symbolic Z-matrix:
 Charge =  0 Multiplicity = 2

                          Input orientation:
 ---------------------------------------------------------------------
 Center     Atomic      Atomic             Coordinates (Angstroms)
 Number     Number       Type             X           Y           Z
 ---------------------------------------------------------------------
      1          6           0        0.000000    0.000000    0.000000
      2          1           0        0.000000    0.000000    1.285775
      3          1           0        1.048246    0.000000   -0.286163
      4          1           0       -0.524123   -0.907808   -0.286163
      5          1           0       -0.524123    0.907808   -0.286163
      6          1           0        0.000000    0.000000    2.261160
 ---------------------------------------------------------------------

 SCF Done:  E(ULC-B+HF-LYP) =  -40.8635431493     A.U. after   12 cycles

 Alpha  occ. eigenvalues --  -10.14161  -0.87531  -0.60058  -0.54847  -0.54847
 Alpha  occ. eigenvalues --   -0.34362
 Alpha virt. eigenvalues --    0.06801   0.09135   0.09136   0.10133   0.22091
 Alpha virt. eigenvalues --    0.22091   0.24097   0.27895   0.34793   0.34793
 Alpha virt. eigenvalues --    0.40215   0.40703   0.40704   0.46916   0.62571

  Beta  occ. eigenvalues --  -10.13278  -0.85178  -0.54236  -0.54236  -0.53278
  Beta virt. eigenvalues --    0.00551   0.07701   0.09061   0.09061   0.10004
  Beta virt. eigenvalues --    0.22374   0.22374   0.24916   0.29325   0.35151
  Beta virt. eigenvalues --    0.35151   0.40734   0.40734   0.41209   0.49929

 Mulliken atomic charges:
              1
     1  C   -0.605043
     2  H    0.118129
     3  H    0.181557
     4  H    0.181561
     5  H    0.181561
     6  H   -0.057765
 Sum of Mulliken atomic charges =   0.00000

 Dipole moment (field-independent basis, Debye):
    X=              0.0000    Y=              0.0000    Z=             -0.7080  Tot=              0.7080
 Quadrupole moment (field-independent basis, Debye-Ang):
   XX=             -9.6418   YY=             -9.6418   ZZ=            -12.1381
   XY=              0.0000   XZ=              0.0000   YZ=              0.0000

 Normal termination of Gaussian 09 at Wed Nov  3 01:09:40 2010.
