 Gaussian 09, Revision A.02,
 Gaussian 09:  EM64L-G09RevA.02 11-Jun-2009

 -------------------------------------------
 #p lc-blyp/6-311+g(3df,2p) nosymm scf=tight
 -------------------------------------------

 ---------
 15 H2+CH3
 ---------
 Symbolic Z-matrix:
 Charge =  0 Multiplicity = 2

                          Input orientation:
 ---------------------------------------------------------------------
 Center     Atomic      Atomic             Coordinates (Angstroms)
 Number     Number       Type             X           Y           Z
 ---------------------------------------------------------------------
      1          6           0        0.000000    0.000000    0.000000
      2          1           0        0.000000    0.000000    2.190381
      3          1           0        1.078974    0.000000   -0.027386
      4          1           0       -0.539487   -0.934419   -0.027386
      5          1           0       -0.539487    0.934419   -0.027386
      6          1           0        0.000000    0.000000    2.939448
 ---------------------------------------------------------------------

 SCF Done:  E(ULC-B+HF-LYP) =  -40.8733697762     A.U. after   12 cycles

 Alpha  occ. eigenvalues --  -10.14705  -0.85721  -0.56719  -0.56003  -0.56003
 Alpha  occ. eigenvalues --   -0.36073
 Alpha virt. eigenvalues --    0.06960   0.09077   0.09077   0.11734   0.18666
 Alpha virt. eigenvalues --    0.23262   0.23262   0.25005   0.37348   0.37348
 Alpha virt. eigenvalues --    0.39933   0.40220   0.40220   0.49306   0.59262

  Beta  occ. eigenvalues --  -10.13278  -0.81175  -0.55461  -0.54947  -0.54947
  Beta virt. eigenvalues --    0.01784   0.07232   0.08973   0.08973   0.12367
  Beta virt. eigenvalues --    0.20770   0.23520   0.23520   0.26154   0.38465
  Beta virt. eigenvalues --    0.38465   0.40229   0.40229   0.41077   0.50638

 Mulliken atomic charges:
              1
     1  C   -0.588313
     2  H    0.021806
     3  H    0.199614
     4  H    0.199616
     5  H    0.199616
     6  H   -0.032339
 Sum of Mulliken atomic charges =   0.00000

 Dipole moment (field-independent basis, Debye):
    X=              0.0000    Y=              0.0000    Z=             -0.1735  Tot=              0.1735
 Quadrupole moment (field-independent basis, Debye-Ang):
   XX=             -9.4106   YY=             -9.4106   ZZ=            -11.3671
   XY=              0.0000   XZ=              0.0000   YZ=              0.0000

 Normal termination of Gaussian 09 at Wed Nov  3 01:44:17 2010.
