 Gaussian 09, Revision A.02,
 Gaussian 09:  EM64L-G09RevA.02 11-Jun-2009

 -------------------------------------------
 #p lc-blyp/6-311+g(3df,2p) nosymm scf=tight
 -------------------------------------------

 ---------
 13 H2+CH3
 ---------
 Symbolic Z-matrix:
 Charge =  0 Multiplicity = 2

                          Input orientation:
 ---------------------------------------------------------------------
 Center     Atomic      Atomic             Coordinates (Angstroms)
 Number     Number       Type             X           Y           Z
 ---------------------------------------------------------------------
      1          6           0        0.000000    0.000000    0.000000
      2          1           0        0.000000    0.000000    2.070481
      3          1           0        1.078477    0.000000   -0.045551
      4          1           0       -0.539239   -0.933989   -0.045551
      5          1           0       -0.539239    0.933989   -0.045551
      6          1           0        0.000000    0.000000    2.822645
 ---------------------------------------------------------------------

 SCF Done:  E(ULC-B+HF-LYP) =  -40.8721589714     A.U. after   12 cycles

 Alpha  occ. eigenvalues --  -10.14692  -0.85840  -0.56897  -0.56021  -0.56021
 Alpha  occ. eigenvalues --   -0.35805
 Alpha virt. eigenvalues --    0.06952   0.09054   0.09054   0.11485   0.19284
 Alpha virt. eigenvalues --    0.23210   0.23210   0.25134   0.37066   0.37066
 Alpha virt. eigenvalues --    0.40189   0.40189   0.40936   0.48762   0.59395

  Beta  occ. eigenvalues --  -10.13265  -0.81340  -0.55217  -0.54970  -0.54970
  Beta virt. eigenvalues --    0.01819   0.07314   0.08964   0.08964   0.11999
  Beta virt. eigenvalues --    0.21389   0.23477   0.23478   0.26339   0.38148
  Beta virt. eigenvalues --    0.38148   0.40215   0.40215   0.42265   0.49966

 Mulliken atomic charges:
              1
     1  C   -0.585771
     2  H    0.028437
     3  H    0.199625
     4  H    0.199627
     5  H    0.199627
     6  H   -0.041544
 Sum of Mulliken atomic charges =   0.00000

 Dipole moment (field-independent basis, Debye):
    X=              0.0000    Y=              0.0000    Z=             -0.2272  Tot=              0.2272
 Quadrupole moment (field-independent basis, Debye-Ang):
   XX=             -9.3980   YY=             -9.3980   ZZ=            -11.4665
   XY=              0.0000   XZ=              0.0000   YZ=              0.0000

 Normal termination of Gaussian 09 at Wed Nov  3 01:43:03 2010.
