 Gaussian 09, Revision A.02,
 Gaussian 09:  EM64L-G09RevA.02 11-Jun-2009

 -------------------------------------------
 #p lc-blyp/6-311+g(3df,2p) nosymm scf=tight
 -------------------------------------------

 --------
 14 H_CH4
 --------
 Symbolic Z-matrix:
 Charge =  0 Multiplicity = 2

                          Input orientation:
 ---------------------------------------------------------------------
 Center     Atomic      Atomic             Coordinates (Angstroms)
 Number     Number       Type             X           Y           Z
 ---------------------------------------------------------------------
      1          6           0        0.000000    0.000000    0.000000
      2          1           0        0.000000    0.000000    1.096433
      3          1           0        1.028382    0.000000   -0.359878
      4          1           0       -0.514191   -0.890605   -0.359878
      5          1           0       -0.514191    0.890605   -0.359878
      6          1           0        0.000000    0.000000    2.733236
 ---------------------------------------------------------------------

 SCF Done:  E(ULC-B+HF-LYP) =  -40.8807111826     A.U. after   12 cycles

 Alpha  occ. eigenvalues --  -10.11646  -0.86441  -0.55622  -0.52825  -0.52825
 Alpha  occ. eigenvalues --   -0.42249
 Alpha virt. eigenvalues --    0.06685   0.09426   0.09426   0.10937   0.22423
 Alpha virt. eigenvalues --    0.22423   0.25529   0.27857   0.35938   0.35938
 Alpha virt. eigenvalues --    0.37150   0.41680   0.41680   0.45273   0.63631

  Beta  occ. eigenvalues --  -10.11489  -0.85986  -0.52848  -0.52722  -0.52722
  Beta virt. eigenvalues --   -0.01683   0.07164   0.09323   0.09323   0.11479
  Beta virt. eigenvalues --    0.22467   0.22467   0.26013   0.28299   0.36019
  Beta virt. eigenvalues --    0.36019   0.39437   0.41627   0.41627   0.49373

 Mulliken atomic charges:
              1
     1  C   -0.698697
     2  H    0.204942
     3  H    0.167753
     4  H    0.167755
     5  H    0.167755
     6  H   -0.009508
 Sum of Mulliken atomic charges =   0.00000

 Dipole moment (field-independent basis, Debye):
    X=              0.0000    Y=              0.0000    Z=             -0.1695  Tot=              0.1695
 Quadrupole moment (field-independent basis, Debye-Ang):
   XX=             -9.8849   YY=             -9.8848   ZZ=            -10.5612
   XY=              0.0000   XZ=              0.0000   YZ=              0.0000

 Normal termination of Gaussian 09 at Wed Nov  3 01:15:55 2010.
