 Gaussian 09, Revision A.02,
 Gaussian 09:  EM64L-G09RevA.02 11-Jun-2009

 -------------------------------------------
 #p lc-blyp/6-311+g(3df,2p) nosymm scf=tight
 -------------------------------------------

 --------
 9 H2+CH3
 --------
 Symbolic Z-matrix:
 Charge =  0 Multiplicity = 2

                          Input orientation:
 ---------------------------------------------------------------------
 Center     Atomic      Atomic             Coordinates (Angstroms)
 Number     Number       Type             X           Y           Z
 ---------------------------------------------------------------------
      1          6           0        0.000000    0.000000    0.000000
      2          1           0        0.000000    0.000000    1.819180
      3          1           0        1.075053    0.000000   -0.106274
      4          1           0       -0.537526   -0.931023   -0.106274
      5          1           0       -0.537526    0.931023   -0.106274
      6          1           0        0.000000    0.000000    2.586456
 ---------------------------------------------------------------------

 SCF Done:  E(ULC-B+HF-LYP) =  -40.8679969298     A.U. after   12 cycles

 Alpha  occ. eigenvalues --  -10.14691  -0.86225  -0.57572  -0.55991  -0.55991
 Alpha  occ. eigenvalues --   -0.34971
 Alpha virt. eigenvalues --    0.06909   0.09025   0.09025   0.10926   0.20753
 Alpha virt. eigenvalues --    0.22998   0.22998   0.25520   0.36298   0.36298
 Alpha virt. eigenvalues --    0.40215   0.40215   0.42992   0.47198   0.60430

  Beta  occ. eigenvalues --  -10.13279  -0.81935  -0.54960  -0.54960  -0.54536
  Beta virt. eigenvalues --    0.01795   0.07506   0.08966   0.08966   0.11152
  Beta virt. eigenvalues --    0.22730   0.23302   0.23302   0.26896   0.37213
  Beta virt. eigenvalues --    0.37213   0.40305   0.40305   0.44924   0.47984

 Mulliken atomic charges:
              1
     1  C   -0.573175
     2  H    0.037217
     3  H    0.197996
     4  H    0.197997
     5  H    0.197997
     6  H   -0.058032
 Sum of Mulliken atomic charges =   0.00000

 Dipole moment (field-independent basis, Debye):
    X=              0.0000    Y=              0.0000    Z=             -0.3897  Tot=              0.3897
 Quadrupole moment (field-independent basis, Debye-Ang):
   XX=             -9.3903   YY=             -9.3903   ZZ=            -11.6980
   XY=              0.0000   XZ=              0.0000   YZ=              0.0000

 Normal termination of Gaussian 09 at Wed Nov  3 01:40:33 2010.
