 Gaussian 09, Revision A.02,
 Gaussian 09:  EM64L-G09RevA.02 11-Jun-2009

 -------------------------------------------
 #p lc-blyp/6-311+g(3df,2p) nosymm scf=tight
 -------------------------------------------

 ---------
 37 H2+CH3
 ---------
 Symbolic Z-matrix:
 Charge =  0 Multiplicity = 2

                          Input orientation:
 ---------------------------------------------------------------------
 Center     Atomic      Atomic             Coordinates (Angstroms)
 Number     Number       Type             X           Y           Z
 ---------------------------------------------------------------------
      1          6           0        0.000000    0.000000    0.000000
      2          1           0        0.000000    0.000000    3.109147
      3          1           0        1.079214    0.000000   -0.003632
      4          1           0       -0.539607   -0.934627   -0.003632
      5          1           0       -0.539607    0.934627   -0.003632
      6          1           0        0.000000    0.000000    3.852544
 ---------------------------------------------------------------------

 SCF Done:  E(ULC-B+HF-LYP) =  -40.8751785572     A.U. after   11 cycles

 Alpha  occ. eigenvalues --  -10.14725  -0.85383  -0.56410  -0.55872  -0.55872
 Alpha  occ. eigenvalues --   -0.36630
 Alpha virt. eigenvalues --    0.06870   0.09247   0.09247   0.12787   0.16195
 Alpha virt. eigenvalues --    0.23396   0.23396   0.24012   0.35762   0.38926
 Alpha virt. eigenvalues --    0.38926   0.40353   0.40353   0.46648   0.62894

  Beta  occ. eigenvalues --  -10.13306  -0.80782  -0.56276  -0.54810  -0.54810
  Beta virt. eigenvalues --    0.01482   0.06779   0.09071   0.09071   0.14995
  Beta virt. eigenvalues --    0.17008   0.23629   0.23629   0.24922   0.35973
  Beta virt. eigenvalues --    0.40074   0.40074   0.40400   0.40400   0.48326

 Mulliken atomic charges:
              1
     1  C   -0.568724
     2  H   -0.006730
     3  H    0.191094
     4  H    0.191097
     5  H    0.191097
     6  H    0.002166
 Sum of Mulliken atomic charges =   0.00000

 Dipole moment (field-independent basis, Debye):
    X=              0.0000    Y=              0.0000    Z=             -0.0622  Tot=              0.0622
 Quadrupole moment (field-independent basis, Debye-Ang):
   XX=             -9.4683   YY=             -9.4683   ZZ=            -11.0044
   XY=              0.0000   XZ=              0.0000   YZ=              0.0000

 Normal termination of Gaussian 09 at Wed Nov  3 01:57:01 2010.
