 Gaussian 09, Revision A.02,
 Gaussian 09:  EM64L-G09RevA.02 11-Jun-2009

 -------------------------------------------
 #p lc-blyp/6-311+g(3df,2p) nosymm scf=tight
 -------------------------------------------

 --------
 8 H2+CH3
 --------
 Symbolic Z-matrix:
 Charge =  0 Multiplicity = 2

                          Input orientation:
 ---------------------------------------------------------------------
 Center     Atomic      Atomic             Coordinates (Angstroms)
 Number     Number       Type             X           Y           Z
 ---------------------------------------------------------------------
      1          6           0        0.000000    0.000000    0.000000
      2          1           0        0.000000    0.000000    1.754478
      3          1           0        1.073453    0.000000   -0.125007
      4          1           0       -0.536727   -0.929638   -0.125007
      5          1           0       -0.536727    0.929638   -0.125007
      6          1           0        0.000000    0.000000    2.529005
 ---------------------------------------------------------------------

 SCF Done:  E(ULC-B+HF-LYP) =  -40.8665792561     A.U. after   12 cycles

 Alpha  occ. eigenvalues --  -10.14698  -0.86361  -0.57840  -0.55959  -0.55959
 Alpha  occ. eigenvalues --   -0.34690
 Alpha virt. eigenvalues --    0.06897   0.09025   0.09025   0.10779   0.21159
 Alpha virt. eigenvalues --    0.22914   0.22914   0.25663   0.36069   0.36069
 Alpha virt. eigenvalues --    0.40245   0.40245   0.43356   0.46817   0.60880

  Beta  occ. eigenvalues --  -10.13298  -0.82167  -0.54939  -0.54939  -0.54335
  Beta virt. eigenvalues --    0.01754   0.07564   0.08972   0.08972   0.10917
  Beta virt. eigenvalues --    0.23061   0.23231   0.23231   0.27100   0.36924
  Beta virt. eigenvalues --    0.36924   0.40349   0.40349   0.45532   0.47419

 Mulliken atomic charges:
              1
     1  C   -0.568840
     2  H    0.037947
     3  H    0.197133
     4  H    0.197134
     5  H    0.197134
     6  H   -0.060509
 Sum of Mulliken atomic charges =   0.00000

 Dipole moment (field-independent basis, Debye):
    X=              0.0000    Y=              0.0000    Z=             -0.4365  Tot=              0.4365
 Quadrupole moment (field-independent basis, Debye-Ang):
   XX=             -9.3960   YY=             -9.3960   ZZ=            -11.7605
   XY=              0.0000   XZ=              0.0000   YZ=              0.0000

 Normal termination of Gaussian 09 at Wed Nov  3 01:39:55 2010.
