 Gaussian 09, Revision A.02,
 Gaussian 09:  EM64L-G09RevA.02 11-Jun-2009

 -------------------------------------------
 #p lc-blyp/6-311+g(3df,2p) nosymm scf=tight
 -------------------------------------------

 --------
 48 H_CH4
 --------
 Symbolic Z-matrix:
 Charge =  0 Multiplicity = 2

                          Input orientation:
 ---------------------------------------------------------------------
 Center     Atomic      Atomic             Coordinates (Angstroms)
 Number     Number       Type             X           Y           Z
 ---------------------------------------------------------------------
      1          6           0        0.000000    0.000000    0.000000
      2          1           0        0.000000    0.000000    1.089266
      3          1           0        1.027013    0.000000   -0.363047
      4          1           0       -0.513507   -0.889420   -0.363047
      5          1           0       -0.513507    0.889420   -0.363047
      6          1           0        0.000000    0.000000    4.043577
 ---------------------------------------------------------------------

 SCF Done:  E(ULC-B+HF-LYP) =  -40.8835561342     A.U. after   10 cycles

 Alpha  occ. eigenvalues --  -10.11329  -0.85943  -0.52615  -0.52523  -0.52523
 Alpha  occ. eigenvalues --   -0.45019
 Alpha virt. eigenvalues --    0.06254   0.09661   0.09661   0.10614   0.22666
 Alpha virt. eigenvalues --    0.22678   0.22678   0.27357   0.36821   0.36841
 Alpha virt. eigenvalues --    0.36841   0.41866   0.41866   0.42426   0.61767

  Beta  occ. eigenvalues --  -10.11323  -0.85925  -0.52519  -0.52519  -0.52515
  Beta virt. eigenvalues --   -0.02303   0.06517   0.09577   0.09577   0.11001
  Beta virt. eigenvalues --    0.22666   0.22666   0.22994   0.27319   0.36832
  Beta virt. eigenvalues --    0.36832   0.40185   0.41849   0.41849   0.45588

 Mulliken atomic charges:
              1
     1  C   -0.664981
     2  H    0.163259
     3  H    0.166474
     4  H    0.166475
     5  H    0.166475
     6  H    0.002297
 Sum of Mulliken atomic charges =   0.00000

 Dipole moment (field-independent basis, Debye):
    X=              0.0000    Y=              0.0000    Z=              0.0121  Tot=              0.0121
 Quadrupole moment (field-independent basis, Debye-Ang):
   XX=             -9.9513   YY=             -9.9513   ZZ=             -9.8428
   XY=              0.0000   XZ=              0.0000   YZ=              0.0000

 Normal termination of Gaussian 09 at Wed Nov  3 01:34:18 2010.
