 Gaussian 09, Revision A.02,
 Gaussian 09:  EM64L-G09RevA.02 11-Jun-2009

 -------------------------------------------
 #p lc-blyp/6-311+g(3df,2p) nosymm scf=tight
 -------------------------------------------

 ---------
 16 H2+CH3
 ---------
 Symbolic Z-matrix:
 Charge =  0 Multiplicity = 2

                          Input orientation:
 ---------------------------------------------------------------------
 Center     Atomic      Atomic             Coordinates (Angstroms)
 Number     Number       Type             X           Y           Z
 ---------------------------------------------------------------------
      1          6           0        0.000000    0.000000    0.000000
      2          1           0        0.000000    0.000000    2.249374
      3          1           0        1.079099    0.000000   -0.021091
      4          1           0       -0.539550   -0.934527   -0.021091
      5          1           0       -0.539550    0.934527   -0.021091
      6          1           0        0.000000    0.000000    2.997366
 ---------------------------------------------------------------------

 SCF Done:  E(ULC-B+HF-LYP) =  -40.8738149011     A.U. after   12 cycles

 Alpha  occ. eigenvalues --  -10.14712  -0.85673  -0.56653  -0.55992  -0.55992
 Alpha  occ. eigenvalues --   -0.36178
 Alpha virt. eigenvalues --    0.06961   0.09088   0.09089   0.11852   0.18385
 Alpha virt. eigenvalues --    0.23280   0.23280   0.24944   0.37471   0.37471
 Alpha virt. eigenvalues --    0.39472   0.40238   0.40238   0.49497   0.59270

  Beta  occ. eigenvalues --  -10.13285  -0.81112  -0.55562  -0.54934  -0.54934
  Beta virt. eigenvalues --    0.01761   0.07194   0.08979   0.08979   0.12543
  Beta virt. eigenvalues --    0.20477   0.23535   0.23535   0.26071   0.38599
  Beta virt. eigenvalues --    0.38599   0.40241   0.40241   0.40534   0.50890

 Mulliken atomic charges:
              1
     1  C   -0.588592
     2  H    0.018413
     3  H    0.199408
     4  H    0.199409
     5  H    0.199409
     6  H   -0.028048
 Sum of Mulliken atomic charges =   0.00000

 Dipole moment (field-independent basis, Debye):
    X=              0.0000    Y=              0.0000    Z=             -0.1535  Tot=              0.1535
 Quadrupole moment (field-independent basis, Debye-Ang):
   XX=             -9.4171   YY=             -9.4171   ZZ=            -11.3230
   XY=              0.0000   XZ=              0.0000   YZ=              0.0000

 Normal termination of Gaussian 09 at Wed Nov  3 01:44:55 2010.
