 Gaussian 09, Revision A.02,
 Gaussian 09:  EM64L-G09RevA.02 11-Jun-2009

 -------------------------------------------
 #p lc-blyp/6-311+g(3df,2p) nosymm scf=tight
 -------------------------------------------

 --------
 19 H_CH4
 --------
 Symbolic Z-matrix:
 Charge =  0 Multiplicity = 2

                          Input orientation:
 ---------------------------------------------------------------------
 Center     Atomic      Atomic             Coordinates (Angstroms)
 Number     Number       Type             X           Y           Z
 ---------------------------------------------------------------------
      1          6           0        0.000000    0.000000    0.000000
      2          1           0        0.000000    0.000000    1.091415
      3          1           0        1.027438    0.000000   -0.362400
      4          1           0       -0.513719   -0.889788   -0.362400
      5          1           0       -0.513719    0.889788   -0.362400
      6          1           0        0.000000    0.000000    3.005947
 ---------------------------------------------------------------------

 SCF Done:  E(ULC-B+HF-LYP) =  -40.8826425771     A.U. after   11 cycles

 Alpha  occ. eigenvalues --  -10.11440  -0.86161  -0.54201  -0.52634  -0.52634
 Alpha  occ. eigenvalues --   -0.43700
 Alpha virt. eigenvalues --    0.06608   0.09503   0.09503   0.11056   0.22550
 Alpha virt. eigenvalues --    0.22550   0.25671   0.26997   0.35995   0.36365
 Alpha virt. eigenvalues --    0.36365   0.41828   0.41828   0.45024   0.64191

  Beta  occ. eigenvalues --  -10.11361  -0.85929  -0.52643  -0.52582  -0.52582
  Beta virt. eigenvalues --   -0.02077   0.07023   0.09393   0.09394   0.11585
  Beta virt. eigenvalues --    0.22562   0.22562   0.26087   0.27346   0.36387
  Beta virt. eigenvalues --    0.36387   0.38913   0.41779   0.41779   0.48662

 Mulliken atomic charges:
              1
     1  C   -0.691681
     2  H    0.192738
     3  H    0.166747
     4  H    0.166748
     5  H    0.166748
     6  H   -0.001300
 Sum of Mulliken atomic charges =   0.00000

 Dipole moment (field-independent basis, Debye):
    X=              0.0000    Y=              0.0000    Z=             -0.0662  Tot=              0.0662
 Quadrupole moment (field-independent basis, Debye-Ang):
   XX=             -9.9191   YY=             -9.9191   ZZ=            -10.1950
   XY=              0.0000   XZ=              0.0000   YZ=              0.0000

 Normal termination of Gaussian 09 at Wed Nov  3 01:18:46 2010.
