 Gaussian 09, Revision A.02,
 Gaussian 09:  EM64L-G09RevA.02 11-Jun-2009

 -------------------------------------------
 #p lc-blyp/6-311+g(3df,2p) nosymm scf=tight
 -------------------------------------------

 --------
 38 H_CH4
 --------
 Symbolic Z-matrix:
 Charge =  0 Multiplicity = 2

                          Input orientation:
 ---------------------------------------------------------------------
 Center     Atomic      Atomic             Coordinates (Angstroms)
 Number     Number       Type             X           Y           Z
 ---------------------------------------------------------------------
      1          6           0        0.000000    0.000000    0.000000
      2          1           0        0.000000    0.000000    1.089274
      3          1           0        1.027019    0.000000   -0.363062
      4          1           0       -0.513509   -0.889424   -0.363062
      5          1           0       -0.513509    0.889424   -0.363062
      6          1           0        0.000000    0.000000    3.873999
 ---------------------------------------------------------------------

 SCF Done:  E(ULC-B+HF-LYP) =  -40.8835930495     A.U. after   10 cycles

 Alpha  occ. eigenvalues --  -10.11331  -0.85950  -0.52678  -0.52525  -0.52525
 Alpha  occ. eigenvalues --   -0.44989
 Alpha virt. eigenvalues --    0.06310   0.09646   0.09646   0.10743   0.22672
 Alpha virt. eigenvalues --    0.22672   0.23069   0.27263   0.36359   0.36826
 Alpha virt. eigenvalues --    0.36826   0.41860   0.41860   0.43056   0.63070

  Beta  occ. eigenvalues --  -10.11322  -0.85922  -0.52519  -0.52519  -0.52517
  Beta virt. eigenvalues --   -0.02330   0.06596   0.09553   0.09553   0.11160
  Beta virt. eigenvalues --    0.22659   0.22659   0.23410   0.27249   0.36815
  Beta virt. eigenvalues --    0.36815   0.39672   0.41842   0.41842   0.46260

 Mulliken atomic charges:
              1
     1  C   -0.667274
     2  H    0.165574
     3  H    0.166395
     4  H    0.166396
     5  H    0.166396
     6  H    0.002512
 Sum of Mulliken atomic charges =   0.00000

 Dipole moment (field-independent basis, Debye):
    X=              0.0000    Y=              0.0000    Z=              0.0104  Tot=              0.0104
 Quadrupole moment (field-independent basis, Debye-Ang):
   XX=             -9.9509   YY=             -9.9509   ZZ=             -9.8532
   XY=              0.0000   XZ=              0.0000   YZ=              0.0000

 Normal termination of Gaussian 09 at Wed Nov  3 01:29:06 2010.
