 Gaussian 09, Revision A.02,
 Gaussian 09:  EM64L-G09RevA.02 11-Jun-2009

 -------------------------------------------
 #p lc-blyp/6-311+g(3df,2p) nosymm scf=tight
 -------------------------------------------

 --------
 25 H_CH4
 --------
 Symbolic Z-matrix:
 Charge =  0 Multiplicity = 2

                          Input orientation:
 ---------------------------------------------------------------------
 Center     Atomic      Atomic             Coordinates (Angstroms)
 Number     Number       Type             X           Y           Z
 ---------------------------------------------------------------------
      1          6           0        0.000000    0.000000    0.000000
      2          1           0        0.000000    0.000000    1.089766
      3          1           0        1.027121    0.000000   -0.363028
      4          1           0       -0.513561   -0.889513   -0.363028
      5          1           0       -0.513561    0.889513   -0.363028
      6          1           0        0.000000    0.000000    3.311480
 ---------------------------------------------------------------------

 SCF Done:  E(ULC-B+HF-LYP) =  -40.8834356827     A.U. after   11 cycles

 Alpha  occ. eigenvalues --  -10.11360  -0.86024  -0.53296  -0.52556  -0.52556
 Alpha  occ. eigenvalues --   -0.44523
 Alpha virt. eigenvalues --    0.06507   0.09568   0.09568   0.11048   0.22622
 Alpha virt. eigenvalues --    0.22622   0.24948   0.26831   0.35526   0.36644
 Alpha virt. eigenvalues --    0.36644   0.41866   0.41866   0.44729   0.64525

  Beta  occ. eigenvalues --  -10.11324  -0.85915  -0.52555  -0.52532  -0.52532
  Beta virt. eigenvalues --   -0.02279   0.06869   0.09457   0.09458   0.11543
  Beta virt. eigenvalues --    0.22618   0.22618   0.25358   0.27015   0.36638
  Beta virt. eigenvalues --    0.36638   0.38749   0.41832   0.41832   0.48076

 Mulliken atomic charges:
              1
     1  C   -0.684179
     2  H    0.183373
     3  H    0.166333
     4  H    0.166334
     5  H    0.166334
     6  H    0.001805
 Sum of Mulliken atomic charges =   0.00000

 Dipole moment (field-independent basis, Debye):
    X=              0.0000    Y=              0.0000    Z=             -0.0151  Tot=              0.0151
 Quadrupole moment (field-independent basis, Debye-Ang):
   XX=             -9.9388   YY=             -9.9388   ZZ=             -9.9826
   XY=              0.0000   XZ=              0.0000   YZ=              0.0000

 Normal termination of Gaussian 09 at Wed Nov  3 01:22:12 2010.
