 Gaussian 09, Revision A.02,
 Gaussian 09:  EM64L-G09RevA.02 11-Jun-2009

 -------------------------------------------
 #p lc-blyp/6-311+g(3df,2p) nosymm scf=tight
 -------------------------------------------

 ---------
 29 H2+CH3
 ---------
 Symbolic Z-matrix:
 Charge =  0 Multiplicity = 2

                          Input orientation:
 ---------------------------------------------------------------------
 Center     Atomic      Atomic             Coordinates (Angstroms)
 Number     Number       Type             X           Y           Z
 ---------------------------------------------------------------------
      1          6           0        0.000000    0.000000    0.000000
      2          1           0        0.000000    0.000000    2.902579
      3          1           0        1.079237    0.000000   -0.004109
      4          1           0       -0.539619   -0.934647   -0.004109
      5          1           0       -0.539619    0.934647   -0.004109
      6          1           0        0.000000    0.000000    3.646324
 ---------------------------------------------------------------------

 SCF Done:  E(ULC-B+HF-LYP) =  -40.8752533252     A.U. after   11 cycles

 Alpha  occ. eigenvalues --  -10.14735  -0.85416  -0.56399  -0.55892  -0.55892
 Alpha  occ. eigenvalues --   -0.36620
 Alpha virt. eigenvalues --    0.06900   0.09211   0.09211   0.12777   0.16374
 Alpha virt. eigenvalues --    0.23379   0.23379   0.24225   0.36194   0.38626
 Alpha virt. eigenvalues --    0.38626   0.40341   0.40341   0.48048   0.62431

  Beta  occ. eigenvalues --  -10.13315  -0.80815  -0.56177  -0.54830  -0.54830
  Beta virt. eigenvalues --    0.01528   0.06856   0.09048   0.09048   0.14445
  Beta virt. eigenvalues --    0.17708   0.23615   0.23615   0.25181   0.36558
  Beta virt. eigenvalues --    0.39789   0.39789   0.40350   0.40351   0.49737

 Mulliken atomic charges:
              1
     1  C   -0.571839
     2  H   -0.004934
     3  H    0.192534
     4  H    0.192534
     5  H    0.192534
     6  H   -0.000829
 Sum of Mulliken atomic charges =   0.00000

 Dipole moment (field-independent basis, Debye):
    X=              0.0000    Y=              0.0000    Z=             -0.0724  Tot=              0.0724
 Quadrupole moment (field-independent basis, Debye-Ang):
   XX=             -9.4627   YY=             -9.4627   ZZ=            -11.0431
   XY=              0.0000   XZ=              0.0000   YZ=              0.0000

 Normal termination of Gaussian 09 at Wed Nov  3 01:52:27 2010.
