 Gaussian 09, Revision A.02,
 Gaussian 09:  EM64L-G09RevA.02 11-Jun-2009

 -------------------------------------------
 #p lc-blyp/6-311+g(3df,2p) nosymm scf=tight
 -------------------------------------------

 ---------
 23 H2+CH3
 ---------
 Symbolic Z-matrix:
 Charge =  0 Multiplicity = 2

                          Input orientation:
 ---------------------------------------------------------------------
 Center     Atomic      Atomic             Coordinates (Angstroms)
 Number     Number       Type             X           Y           Z
 ---------------------------------------------------------------------
      1          6           0        0.000000    0.000000    0.000000
      2          1           0        0.000000    0.000000    2.625382
      3          1           0        1.079258    0.000000   -0.005771
      4          1           0       -0.539629   -0.934665   -0.005771
      5          1           0       -0.539629    0.934665   -0.005771
      6          1           0        0.000000    0.000000    3.370012
 ---------------------------------------------------------------------

 SCF Done:  E(ULC-B+HF-LYP) =  -40.8751393808     A.U. after   11 cycles

 Alpha  occ. eigenvalues --  -10.14738  -0.85484  -0.56432  -0.55926  -0.55926
 Alpha  occ. eigenvalues --   -0.36545
 Alpha virt. eigenvalues --    0.06934   0.09160   0.09160   0.12509   0.16968
 Alpha virt. eigenvalues --    0.23350   0.23351   0.24534   0.37190   0.38162
 Alpha virt. eigenvalues --    0.38162   0.40316   0.40316   0.49387   0.60451

  Beta  occ. eigenvalues --  -10.13315  -0.80886  -0.55993  -0.54864  -0.54864
  Beta virt. eigenvalues --    0.01614   0.06980   0.09018   0.09018   0.13649
  Beta virt. eigenvalues --    0.18780   0.23592   0.23593   0.25553   0.37815
  Beta virt. eigenvalues --    0.39315   0.39315   0.40311   0.40311   0.51058

 Mulliken atomic charges:
              1
     1  C   -0.579559
     2  H    0.001098
     3  H    0.195572
     4  H    0.195569
     5  H    0.195569
     6  H   -0.008249
 Sum of Mulliken atomic charges =   0.00000

 Dipole moment (field-independent basis, Debye):
    X=              0.0000    Y=              0.0000    Z=             -0.0909  Tot=              0.0909
 Quadrupole moment (field-independent basis, Debye-Ang):
   XX=             -9.4497   YY=             -9.4497   ZZ=            -11.1235
   XY=              0.0000   XZ=              0.0000   YZ=              0.0000

 Normal termination of Gaussian 09 at Wed Nov  3 01:49:02 2010.
