 Gaussian 09, Revision A.02,
 Gaussian 09:  EM64L-G09RevA.02 11-Jun-2009

 -------------------------------------------
 #p lc-blyp/6-311+g(3df,2p) nosymm scf=tight
 -------------------------------------------

 --------
 28 H_CH4
 --------
 Symbolic Z-matrix:
 Charge =  0 Multiplicity = 2

                          Input orientation:
 ---------------------------------------------------------------------
 Center     Atomic      Atomic             Coordinates (Angstroms)
 Number     Number       Type             X           Y           Z
 ---------------------------------------------------------------------
      1          6           0        0.000000    0.000000    0.000000
      2          1           0        0.000000    0.000000    1.089495
      3          1           0        1.027069    0.000000   -0.363080
      4          1           0       -0.513535   -0.889468   -0.363080
      5          1           0       -0.513535    0.889468   -0.363080
      6          1           0        0.000000    0.000000    3.455086
 ---------------------------------------------------------------------

 SCF Done:  E(ULC-B+HF-LYP) =  -40.8835632908     A.U. after   10 cycles

 Alpha  occ. eigenvalues --  -10.11346  -0.85992  -0.53046  -0.52541  -0.52541
 Alpha  occ. eigenvalues --   -0.44730
 Alpha virt. eigenvalues --    0.06456   0.09593   0.09593   0.11001   0.22641
 Alpha virt. eigenvalues --    0.22641   0.24426   0.26942   0.35572   0.36721
 Alpha virt. eigenvalues --    0.36721   0.41864   0.41865   0.44454   0.64601

  Beta  occ. eigenvalues --  -10.11320  -0.85915  -0.52537  -0.52524  -0.52524
  Beta virt. eigenvalues --   -0.02321   0.06799   0.09484   0.09484   0.11478
  Beta virt. eigenvalues --    0.22633   0.22633   0.24822   0.27058   0.36709
  Beta virt. eigenvalues --    0.36709   0.38847   0.41837   0.41837   0.47732

 Mulliken atomic charges:
              1
     1  C   -0.679546
     2  H    0.178348
     3  H    0.166285
     4  H    0.166286
     5  H    0.166286
     6  H    0.002341
 Sum of Mulliken atomic charges =   0.00000

 Dipole moment (field-independent basis, Debye):
    X=              0.0000    Y=              0.0000    Z=             -0.0036  Tot=              0.0036
 Quadrupole moment (field-independent basis, Debye-Ang):
   XX=             -9.9441   YY=             -9.9441   ZZ=             -9.9276
   XY=              0.0000   XZ=              0.0000   YZ=              0.0000

 Normal termination of Gaussian 09 at Wed Nov  3 01:23:49 2010.
