 Gaussian 09, Revision A.02,
 Gaussian 09:  EM64L-G09RevA.02 11-Jun-2009

 -------------------------------------------
 #p lc-blyp/6-311+g(3df,2p) nosymm scf=tight
 -------------------------------------------

 ---------
 24 H2+CH3
 ---------
 Symbolic Z-matrix:
 Charge =  0 Multiplicity = 2

                          Input orientation:
 ---------------------------------------------------------------------
 Center     Atomic      Atomic             Coordinates (Angstroms)
 Number     Number       Type             X           Y           Z
 ---------------------------------------------------------------------
      1          6           0        0.000000    0.000000    0.000000
      2          1           0        0.000000    0.000000    2.674297
      3          1           0        1.079257    0.000000   -0.005272
      4          1           0       -0.539628   -0.934664   -0.005272
      5          1           0       -0.539628    0.934664   -0.005272
      6          1           0        0.000000    0.000000    3.418718
 ---------------------------------------------------------------------

 SCF Done:  E(ULC-B+HF-LYP) =  -40.8751902884     A.U. after   11 cycles

 Alpha  occ. eigenvalues --  -10.14739  -0.85469  -0.56420  -0.55919  -0.55919
 Alpha  occ. eigenvalues --   -0.36566
 Alpha virt. eigenvalues --    0.06929   0.09169   0.09169   0.12575   0.16833
 Alpha virt. eigenvalues --    0.23356   0.23357   0.24478   0.36976   0.38247
 Alpha virt. eigenvalues --    0.38247   0.40322   0.40322   0.49214   0.60745

  Beta  occ. eigenvalues --  -10.13316  -0.80870  -0.56031  -0.54858  -0.54858
  Beta virt. eigenvalues --    0.01597   0.06956   0.09023   0.09023   0.13792
  Beta virt. eigenvalues --    0.18580   0.23597   0.23597   0.25486   0.37551
  Beta virt. eigenvalues --    0.39402   0.39402   0.40317   0.40317   0.50897

 Mulliken atomic charges:
              1
     1  C   -0.577932
     2  H   -0.000353
     3  H    0.194959
     4  H    0.194956
     5  H    0.194956
     6  H   -0.006588
 Sum of Mulliken atomic charges =   0.00000

 Dipole moment (field-independent basis, Debye):
    X=              0.0000    Y=              0.0000    Z=             -0.0869  Tot=              0.0869
 Quadrupole moment (field-independent basis, Debye-Ang):
   XX=             -9.4526   YY=             -9.4526   ZZ=            -11.1062
   XY=              0.0000   XZ=              0.0000   YZ=              0.0000

 Normal termination of Gaussian 09 at Wed Nov  3 01:49:36 2010.
