 Gaussian 09, Revision A.02,
 Gaussian 09:  EM64L-G09RevA.02 11-Jun-2009

 -------------------------------------------
 #p lc-blyp/6-311+g(3df,2p) nosymm scf=tight
 -------------------------------------------

 --------
 10 H_CH4
 --------
 Symbolic Z-matrix:
 Charge =  0 Multiplicity = 2

                          Input orientation:
 ---------------------------------------------------------------------
 Center     Atomic      Atomic             Coordinates (Angstroms)
 Number     Number       Type             X           Y           Z
 ---------------------------------------------------------------------
      1          6           0        0.000000    0.000000    0.000000
      2          1           0        0.000000    0.000000    1.110667
      3          1           0        1.030718    0.000000   -0.352714
      4          1           0       -0.515359   -0.892628   -0.352714
      5          1           0       -0.515359    0.892628   -0.352714
      6          1           0        0.000000    0.000000    2.500102
 ---------------------------------------------------------------------

 SCF Done:  E(ULC-B+HF-LYP) =  -40.8771633411     A.U. after   12 cycles

 Alpha  occ. eigenvalues --  -10.12081  -0.86908  -0.57444  -0.53208  -0.53208
 Alpha  occ. eigenvalues --   -0.40102
 Alpha virt. eigenvalues --    0.06728   0.09339   0.09340   0.10704   0.22241
 Alpha virt. eigenvalues --    0.22241   0.25234   0.28585   0.35429   0.35429
 Alpha virt. eigenvalues --    0.38432   0.41410   0.41410   0.45676   0.63038

  Beta  occ. eigenvalues --  -10.11791  -0.86081  -0.53207  -0.53017  -0.53017
  Beta virt. eigenvalues --   -0.01058   0.07298   0.09242   0.09243   0.11192
  Beta virt. eigenvalues --    0.22335   0.22335   0.25766   0.29178   0.35590
  Beta virt. eigenvalues --    0.35590   0.39917   0.41369   0.41369   0.50075

 Mulliken atomic charges:
              1
     1  C   -0.703030
     2  H    0.219306
     3  H    0.169657
     4  H    0.169659
     5  H    0.169659
     6  H   -0.025251
 Sum of Mulliken atomic charges =   0.00000

 Dipole moment (field-independent basis, Debye):
    X=              0.0000    Y=              0.0000    Z=             -0.3386  Tot=              0.3386
 Quadrupole moment (field-independent basis, Debye-Ang):
   XX=             -9.8317   YY=             -9.8317   ZZ=            -11.0867
   XY=              0.0000   XZ=              0.0000   YZ=              0.0000

 Normal termination of Gaussian 09 at Wed Nov  3 01:13:25 2010.
