 Gaussian 09, Revision A.02,
 Gaussian 09:  EM64L-G09RevA.02 11-Jun-2009

 -------------------------------------------
 #p lc-blyp/6-311+g(3df,2p) nosymm scf=tight
 -------------------------------------------

 ---------
 20 H2+CH3
 ---------
 Symbolic Z-matrix:
 Charge =  0 Multiplicity = 2

                          Input orientation:
 ---------------------------------------------------------------------
 Center     Atomic      Atomic             Coordinates (Angstroms)
 Number     Number       Type             X           Y           Z
 ---------------------------------------------------------------------
      1          6           0        0.000000    0.000000    0.000000
      2          1           0        0.000000    0.000000    2.471101
      3          1           0        1.079248    0.000000   -0.008737
      4          1           0       -0.539624   -0.934656   -0.008737
      5          1           0       -0.539624    0.934656   -0.008737
      6          1           0        0.000000    0.000000    3.216636
 ---------------------------------------------------------------------

 SCF Done:  E(ULC-B+HF-LYP) =  -40.8748376962     A.U. after   11 cycles

 Alpha  occ. eigenvalues --  -10.14732  -0.85542  -0.56490  -0.55950  -0.55950
 Alpha  occ. eigenvalues --   -0.36446
 Alpha virt. eigenvalues --    0.06950   0.09131   0.09131   0.12265   0.17470
 Alpha virt. eigenvalues --    0.23328   0.23328   0.24708   0.37890   0.37890
 Alpha virt. eigenvalues --    0.37987   0.40292   0.40292   0.49708   0.59726

  Beta  occ. eigenvalues --  -10.13307  -0.80952  -0.55852  -0.54889  -0.54889
  Beta virt. eigenvalues --    0.01672   0.07061   0.09001   0.09001   0.13196
  Beta virt. eigenvalues --    0.19442   0.23575   0.23575   0.25765   0.38779
  Beta virt. eigenvalues --    0.39035   0.39035   0.40287   0.40288   0.51302

 Mulliken atomic charges:
              1
     1  C   -0.584680
     2  H    0.006938
     3  H    0.197499
     4  H    0.197498
     5  H    0.197498
     6  H   -0.014754
 Sum of Mulliken atomic charges =   0.00000

 Dipole moment (field-independent basis, Debye):
    X=              0.0000    Y=              0.0000    Z=             -0.1076  Tot=              0.1076
 Quadrupole moment (field-independent basis, Debye-Ang):
   XX=             -9.4386   YY=             -9.4386   ZZ=            -11.1896
   XY=              0.0000   XZ=              0.0000   YZ=              0.0000

 Normal termination of Gaussian 09 at Wed Nov  3 01:47:19 2010.
