 Gaussian 09, Revision A.02,
 Gaussian 09:  EM64L-G09RevA.02 11-Jun-2009

 -------------------------------------------
 #p lc-blyp/6-311+g(3df,2p) nosymm scf=tight
 -------------------------------------------

 --------
 47 H_CH4
 --------
 Symbolic Z-matrix:
 Charge =  0 Multiplicity = 2

                          Input orientation:
 ---------------------------------------------------------------------
 Center     Atomic      Atomic             Coordinates (Angstroms)
 Number     Number       Type             X           Y           Z
 ---------------------------------------------------------------------
      1          6           0        0.000000    0.000000    0.000000
      2          1           0        0.000000    0.000000    1.089266
      3          1           0        1.027014    0.000000   -0.363048
      4          1           0       -0.513507   -0.889420   -0.363048
      5          1           0       -0.513507    0.889420   -0.363048
      6          1           0        0.000000    0.000000    4.032661
 ---------------------------------------------------------------------

 SCF Done:  E(ULC-B+HF-LYP) =  -40.8835586697     A.U. after   10 cycles

 Alpha  occ. eigenvalues --  -10.11329  -0.85944  -0.52618  -0.52523  -0.52523
 Alpha  occ. eigenvalues --   -0.45018
 Alpha virt. eigenvalues --    0.06257   0.09660   0.09660   0.10622   0.22678
 Alpha virt. eigenvalues --    0.22678   0.22689   0.27351   0.36791   0.36841
 Alpha virt. eigenvalues --    0.36841   0.41866   0.41866   0.42464   0.61836

  Beta  occ. eigenvalues --  -10.11323  -0.85925  -0.52519  -0.52519  -0.52515
  Beta virt. eigenvalues --   -0.02305   0.06522   0.09576   0.09576   0.11011
  Beta virt. eigenvalues --    0.22666   0.22666   0.23018   0.27314   0.36831
  Beta virt. eigenvalues --    0.36831   0.40150   0.41849   0.41849   0.45631

 Mulliken atomic charges:
              1
     1  C   -0.665079
     2  H    0.163356
     3  H    0.166469
     4  H    0.166470
     5  H    0.166470
     6  H    0.002313
 Sum of Mulliken atomic charges =   0.00000

 Dipole moment (field-independent basis, Debye):
    X=              0.0000    Y=              0.0000    Z=              0.0120  Tot=              0.0120
 Quadrupole moment (field-independent basis, Debye-Ang):
   XX=             -9.9513   YY=             -9.9513   ZZ=             -9.8433
   XY=              0.0000   XZ=              0.0000   YZ=              0.0000

 Normal termination of Gaussian 09 at Wed Nov  3 01:33:47 2010.
