 Gaussian 09, Revision A.02,
 Gaussian 09:  EM64L-G09RevA.02 11-Jun-2009

 -------------------------------------------
 #p lc-blyp/6-311+g(3df,2p) nosymm scf=tight
 -------------------------------------------

 --------
 32 H_CH4
 --------
 Symbolic Z-matrix:
 Charge =  0 Multiplicity = 2

                          Input orientation:
 ---------------------------------------------------------------------
 Center     Atomic      Atomic             Coordinates (Angstroms)
 Number     Number       Type             X           Y           Z
 ---------------------------------------------------------------------
      1          6           0        0.000000    0.000000    0.000000
      2          1           0        0.000000    0.000000    1.089335
      3          1           0        1.027036    0.000000   -0.363084
      4          1           0       -0.513518   -0.889439   -0.363084
      5          1           0       -0.513518    0.889439   -0.363084
      6          1           0        0.000000    0.000000    3.638032
 ---------------------------------------------------------------------

 SCF Done:  E(ULC-B+HF-LYP) =  -40.8836149653     A.U. after   10 cycles

 Alpha  occ. eigenvalues --  -10.11336  -0.85968  -0.52835  -0.52531  -0.52531
 Alpha  occ. eigenvalues --   -0.44889
 Alpha virt. eigenvalues --    0.06392   0.09619   0.09619   0.10905   0.22658
 Alpha virt. eigenvalues --    0.22658   0.23782   0.27095   0.35817   0.36783
 Alpha virt. eigenvalues --    0.36783   0.41860   0.41860   0.43927   0.64658

  Beta  occ. eigenvalues --  -10.11320  -0.85918  -0.52525  -0.52520  -0.52520
  Beta virt. eigenvalues --   -0.02342   0.06709   0.09516   0.09516   0.11359
  Beta virt. eigenvalues --    0.22647   0.22647   0.24153   0.27142   0.36770
  Beta virt. eigenvalues --    0.36770   0.39115   0.41838   0.41838   0.47157

 Mulliken atomic charges:
              1
     1  C   -0.673360
     2  H    0.171848
     3  H    0.166304
     4  H    0.166305
     5  H    0.166305
     6  H    0.002599
 Sum of Mulliken atomic charges =   0.00000

 Dipole moment (field-independent basis, Debye):
    X=              0.0000    Y=              0.0000    Z=              0.0050  Tot=              0.0050
 Quadrupole moment (field-independent basis, Debye-Ang):
   XX=             -9.9484   YY=             -9.9484   ZZ=             -9.8834
   XY=              0.0000   XZ=              0.0000   YZ=              0.0000

 Normal termination of Gaussian 09 at Wed Nov  3 01:25:58 2010.
