 Gaussian 09, Revision A.02,
 Gaussian 09:  EM64L-G09RevA.02 11-Jun-2009

 -------------------------------------------
 #p lc-blyp/6-311+g(3df,2p) nosymm scf=tight
 -------------------------------------------

 --------
 40 H_CH4
 --------
 Symbolic Z-matrix:
 Charge =  0 Multiplicity = 2

                          Input orientation:
 ---------------------------------------------------------------------
 Center     Atomic      Atomic             Coordinates (Angstroms)
 Number     Number       Type             X           Y           Z
 ---------------------------------------------------------------------
      1          6           0        0.000000    0.000000    0.000000
      2          1           0        0.000000    0.000000    1.089270
      3          1           0        1.027017    0.000000   -0.363058
      4          1           0       -0.513509   -0.889423   -0.363058
      5          1           0       -0.513509    0.889423   -0.363058
      6          1           0        0.000000    0.000000    3.923162
 ---------------------------------------------------------------------

 SCF Done:  E(ULC-B+HF-LYP) =  -40.8835831478     A.U. after   10 cycles

 Alpha  occ. eigenvalues --  -10.11330  -0.85948  -0.52656  -0.52524  -0.52524
 Alpha  occ. eigenvalues --   -0.45001
 Alpha virt. eigenvalues --    0.06293   0.09651   0.09651   0.10706   0.22674
 Alpha virt. eigenvalues --    0.22674   0.22942   0.27292   0.36491   0.36831
 Alpha virt. eigenvalues --    0.36832   0.41861   0.41861   0.42868   0.62642

  Beta  occ. eigenvalues --  -10.11322  -0.85923  -0.52519  -0.52519  -0.52517
  Beta virt. eigenvalues --   -0.02323   0.06573   0.09560   0.09561   0.11114
  Beta virt. eigenvalues --    0.22661   0.22661   0.23278   0.27270   0.36821
  Beta virt. eigenvalues --    0.36821   0.39813   0.41843   0.41844   0.46065

 Mulliken atomic charges:
              1
     1  C   -0.666431
     2  H    0.164717
     3  H    0.166418
     4  H    0.166419
     5  H    0.166419
     6  H    0.002458
 Sum of Mulliken atomic charges =   0.00000

 Dipole moment (field-independent basis, Debye):
    X=              0.0000    Y=              0.0000    Z=              0.0110  Tot=              0.0110
 Quadrupole moment (field-independent basis, Debye-Ang):
   XX=             -9.9511   YY=             -9.9511   ZZ=             -9.8494
   XY=              0.0000   XZ=              0.0000   YZ=              0.0000

 Normal termination of Gaussian 09 at Wed Nov  3 01:30:08 2010.
