 Gaussian 09, Revision A.02,
 Gaussian 09:  EM64L-G09RevA.02 11-Jun-2009

 -------------------------------------------
 #p lc-blyp/6-311+g(3df,2p) nosymm scf=tight
 -------------------------------------------

 --------
 34 H_CH4
 --------
 Symbolic Z-matrix:
 Charge =  0 Multiplicity = 2

                          Input orientation:
 ---------------------------------------------------------------------
 Center     Atomic      Atomic             Coordinates (Angstroms)
 Number     Number       Type             X           Y           Z
 ---------------------------------------------------------------------
      1          6           0        0.000000    0.000000    0.000000
      2          1           0        0.000000    0.000000    1.089300
      3          1           0        1.027028    0.000000   -0.363077
      4          1           0       -0.513514   -0.889432   -0.363077
      5          1           0       -0.513514    0.889432   -0.363077
      6          1           0        0.000000    0.000000    3.725832
 ---------------------------------------------------------------------

 SCF Done:  E(ULC-B+HF-LYP) =  -40.8836139272     A.U. after   10 cycles

 Alpha  occ. eigenvalues --  -10.11334  -0.85960  -0.52764  -0.52528  -0.52528
 Alpha  occ. eigenvalues --   -0.44937
 Alpha virt. eigenvalues --    0.06361   0.09630   0.09630   0.10849   0.22664
 Alpha virt. eigenvalues --    0.22664   0.23498   0.27162   0.35995   0.36803
 Alpha virt. eigenvalues --    0.36803   0.41858   0.41858   0.43619   0.64567

  Beta  occ. eigenvalues --  -10.11321  -0.85920  -0.52521  -0.52519  -0.52519
  Beta virt. eigenvalues --   -0.02342   0.06667   0.09530   0.09530   0.11289
  Beta virt. eigenvalues --    0.22652   0.22652   0.23857   0.27183   0.36790
  Beta virt. eigenvalues --    0.36790   0.39297   0.41838   0.41838   0.46837

 Mulliken atomic charges:
              1
     1  C   -0.670731
     2  H    0.169124
     3  H    0.166333
     4  H    0.166333
     5  H    0.166333
     6  H    0.002608
 Sum of Mulliken atomic charges =   0.00000

 Dipole moment (field-independent basis, Debye):
    X=              0.0000    Y=              0.0000    Z=              0.0076  Tot=              0.0076
 Quadrupole moment (field-independent basis, Debye-Ang):
   XX=             -9.9496   YY=             -9.9496   ZZ=             -9.8694
   XY=              0.0000   XZ=              0.0000   YZ=              0.0000

 Normal termination of Gaussian 09 at Wed Nov  3 01:27:00 2010.
