 Gaussian 09, Revision A.02,
 Gaussian 09:  EM64L-G09RevA.02 11-Jun-2009

 -------------------------------------------
 #p lc-blyp/6-311+g(3df,2p) nosymm scf=tight
 -------------------------------------------

 ---------
 35 H2+CH3
 ---------
 Symbolic Z-matrix:
 Charge =  0 Multiplicity = 2

                          Input orientation:
 ---------------------------------------------------------------------
 Center     Atomic      Atomic             Coordinates (Angstroms)
 Number     Number       Type             X           Y           Z
 ---------------------------------------------------------------------
      1          6           0        0.000000    0.000000    0.000000
      2          1           0        0.000000    0.000000    3.085002
      3          1           0        1.079217    0.000000   -0.003682
      4          1           0       -0.539609   -0.934629   -0.003682
      5          1           0       -0.539609    0.934629   -0.003682
      6          1           0        0.000000    0.000000    3.828432
 ---------------------------------------------------------------------

 SCF Done:  E(ULC-B+HF-LYP) =  -40.8751903225     A.U. after   11 cycles

 Alpha  occ. eigenvalues --  -10.14727  -0.85386  -0.56408  -0.55874  -0.55874
 Alpha  occ. eigenvalues --   -0.36630
 Alpha virt. eigenvalues --    0.06874   0.09243   0.09243   0.12795   0.16205
 Alpha virt. eigenvalues --    0.23394   0.23394   0.24036   0.35801   0.38894
 Alpha virt. eigenvalues --    0.38894   0.40352   0.40352   0.46822   0.62896

  Beta  occ. eigenvalues --  -10.13307  -0.80785  -0.56266  -0.54812  -0.54812
  Beta virt. eigenvalues --    0.01486   0.06788   0.09068   0.09068   0.14934
  Beta virt. eigenvalues --    0.17085   0.23627   0.23627   0.24951   0.36027
  Beta virt. eigenvalues --    0.40046   0.40046   0.40392   0.40392   0.48500

 Mulliken atomic charges:
              1
     1  C   -0.569000
     2  H   -0.006606
     3  H    0.191232
     4  H    0.191235
     5  H    0.191235
     6  H    0.001905
 Sum of Mulliken atomic charges =   0.00000

 Dipole moment (field-independent basis, Debye):
    X=              0.0000    Y=              0.0000    Z=             -0.0633  Tot=              0.0633
 Quadrupole moment (field-independent basis, Debye-Ang):
   XX=             -9.4678   YY=             -9.4678   ZZ=            -11.0082
   XY=              0.0000   XZ=              0.0000   YZ=              0.0000

 Normal termination of Gaussian 09 at Wed Nov  3 01:55:53 2010.
