 Gaussian 09, Revision A.02,
 Gaussian 09:  EM64L-G09RevA.02 11-Jun-2009

 -------------------------------------------
 #p lc-blyp/6-311+g(3df,2p) nosymm scf=tight
 -------------------------------------------

 --------
 39 H_CH4
 --------
 Symbolic Z-matrix:
 Charge =  0 Multiplicity = 2

                          Input orientation:
 ---------------------------------------------------------------------
 Center     Atomic      Atomic             Coordinates (Angstroms)
 Number     Number       Type             X           Y           Z
 ---------------------------------------------------------------------
      1          6           0        0.000000    0.000000    0.000000
      2          1           0        0.000000    0.000000    1.089272
      3          1           0        1.027018    0.000000   -0.363060
      4          1           0       -0.513509   -0.889424   -0.363060
      5          1           0       -0.513509    0.889424   -0.363060
      6          1           0        0.000000    0.000000    3.900106
 ---------------------------------------------------------------------

 SCF Done:  E(ULC-B+HF-LYP) =  -40.8835879112     A.U. after   10 cycles

 Alpha  occ. eigenvalues --  -10.11330  -0.85949  -0.52666  -0.52524  -0.52524
 Alpha  occ. eigenvalues --   -0.44996
 Alpha virt. eigenvalues --    0.06301   0.09649   0.09649   0.10723   0.22673
 Alpha virt. eigenvalues --    0.22673   0.23000   0.27279   0.36429   0.36829
 Alpha virt. eigenvalues --    0.36829   0.41860   0.41860   0.42956   0.62838

  Beta  occ. eigenvalues --  -10.11322  -0.85923  -0.52519  -0.52519  -0.52517
  Beta virt. eigenvalues --   -0.02327   0.06584   0.09557   0.09557   0.11136
  Beta virt. eigenvalues --    0.22660   0.22660   0.23339   0.27260   0.36818
  Beta virt. eigenvalues --    0.36818   0.39746   0.41842   0.41843   0.46157

 Mulliken atomic charges:
              1
     1  C   -0.666807
     2  H    0.165099
     3  H    0.166408
     4  H    0.166408
     5  H    0.166408
     6  H    0.002485
 Sum of Mulliken atomic charges =   0.00000

 Dipole moment (field-independent basis, Debye):
    X=              0.0000    Y=              0.0000    Z=              0.0107  Tot=              0.0107
 Quadrupole moment (field-independent basis, Debye-Ang):
   XX=             -9.9510   YY=             -9.9510   ZZ=             -9.8511
   XY=              0.0000   XZ=              0.0000   YZ=              0.0000

 Normal termination of Gaussian 09 at Wed Nov  3 01:29:37 2010.
