 Gaussian 09, Revision A.02,
 Gaussian 09:  EM64L-G09RevA.02 11-Jun-2009

 -------------------------------------------
 #p lc-blyp/6-311+g(3df,2p) nosymm scf=tight
 -------------------------------------------

 ---------
 22 H2+CH3
 ---------
 Symbolic Z-matrix:
 Charge =  0 Multiplicity = 2

                          Input orientation:
 ---------------------------------------------------------------------
 Center     Atomic      Atomic             Coordinates (Angstroms)
 Number     Number       Type             X           Y           Z
 ---------------------------------------------------------------------
      1          6           0        0.000000    0.000000    0.000000
      2          1           0        0.000000    0.000000    2.575308
      3          1           0        1.079258    0.000000   -0.006457
      4          1           0       -0.539629   -0.934665   -0.006457
      5          1           0       -0.539629    0.934665   -0.006457
      6          1           0        0.000000    0.000000    3.320185
 ---------------------------------------------------------------------

 SCF Done:  E(ULC-B+HF-LYP) =  -40.8750674931     A.U. after   11 cycles

 Alpha  occ. eigenvalues --  -10.14737  -0.85501  -0.56447  -0.55933  -0.55933
 Alpha  occ. eigenvalues --   -0.36519
 Alpha virt. eigenvalues --    0.06940   0.09151   0.09151   0.12435   0.17118
 Alpha virt. eigenvalues --    0.23344   0.23344   0.24591   0.37428   0.38074
 Alpha virt. eigenvalues --    0.38074   0.40309   0.40310   0.49530   0.60180

  Beta  occ. eigenvalues --  -10.13313  -0.80905  -0.55951  -0.54872  -0.54872
  Beta virt. eigenvalues --    0.01632   0.07005   0.09012   0.09012   0.13502
  Beta virt. eigenvalues --    0.18990   0.23587   0.23587   0.25622   0.38106
  Beta virt. eigenvalues --    0.39225   0.39225   0.40304   0.40304   0.51183

 Mulliken atomic charges:
              1
     1  C   -0.581266
     2  H    0.002778
     3  H    0.196210
     4  H    0.196208
     5  H    0.196208
     6  H   -0.010138
 Sum of Mulliken atomic charges =   0.00000

 Dipole moment (field-independent basis, Debye):
    X=              0.0000    Y=              0.0000    Z=             -0.0955  Tot=              0.0955
 Quadrupole moment (field-independent basis, Debye-Ang):
   XX=             -9.4464   YY=             -9.4464   ZZ=            -11.1429
   XY=              0.0000   XZ=              0.0000   YZ=              0.0000

 Normal termination of Gaussian 09 at Wed Nov  3 01:48:28 2010.
