 Gaussian 09, Revision A.02,
 Gaussian 09:  EM64L-G09RevA.02 11-Jun-2009

 -------------------------------------------
 #p lc-blyp/6-311+g(3df,2p) nosymm scf=tight
 -------------------------------------------

 ---------
 14 H2+CH3
 ---------
 Symbolic Z-matrix:
 Charge =  0 Multiplicity = 2

                          Input orientation:
 ---------------------------------------------------------------------
 Center     Atomic      Atomic             Coordinates (Angstroms)
 Number     Number       Type             X           Y           Z
 ---------------------------------------------------------------------
      1          6           0        0.000000    0.000000    0.000000
      2          1           0        0.000000    0.000000    2.131676
      3          1           0        1.078776    0.000000   -0.035312
      4          1           0       -0.539388   -0.934247   -0.035312
      5          1           0       -0.539388    0.934247   -0.035312
      6          1           0        0.000000    0.000000    2.882075
 ---------------------------------------------------------------------

 SCF Done:  E(ULC-B+HF-LYP) =  -40.8728324248     A.U. after   12 cycles

 Alpha  occ. eigenvalues --  -10.14698  -0.85775  -0.56797  -0.56014  -0.56014
 Alpha  occ. eigenvalues --   -0.35951
 Alpha virt. eigenvalues --    0.06957   0.09065   0.09066   0.11614   0.18960
 Alpha virt. eigenvalues --    0.23240   0.23240   0.25067   0.37216   0.37216
 Alpha virt. eigenvalues --    0.40204   0.40204   0.40415   0.49064   0.59301

  Beta  occ. eigenvalues --  -10.13271  -0.81249  -0.55348  -0.54960  -0.54960
  Beta virt. eigenvalues --    0.01803   0.07272   0.08968   0.08968   0.12189
  Beta virt. eigenvalues --    0.21070   0.23502   0.23502   0.26242   0.38319
  Beta virt. eigenvalues --    0.38319   0.40219   0.40219   0.41645   0.50334

 Mulliken atomic charges:
              1
     1  C   -0.587400
     2  H    0.025140
     3  H    0.199687
     4  H    0.199689
     5  H    0.199689
     6  H   -0.036806
 Sum of Mulliken atomic charges =   0.00000

 Dipole moment (field-independent basis, Debye):
    X=              0.0000    Y=              0.0000    Z=             -0.1975  Tot=              0.1975
 Quadrupole moment (field-independent basis, Debye-Ang):
   XX=             -9.4042   YY=             -9.4042   ZZ=            -11.4142
   XY=              0.0000   XZ=              0.0000   YZ=              0.0000

 Normal termination of Gaussian 09 at Wed Nov  3 01:43:40 2010.
