 Gaussian 09, Revision A.02,
 Gaussian 09:  EM64L-G09RevA.02 11-Jun-2009

 -------------------------------------------
 #p lc-blyp/6-311+g(3df,2p) nosymm scf=tight
 -------------------------------------------

 ---------
 12 H2+CH3
 ---------
 Symbolic Z-matrix:
 Charge =  0 Multiplicity = 2

                          Input orientation:
 ---------------------------------------------------------------------
 Center     Atomic      Atomic             Coordinates (Angstroms)
 Number     Number       Type             X           Y           Z
 ---------------------------------------------------------------------
      1          6           0        0.000000    0.000000    0.000000
      2          1           0        0.000000    0.000000    2.009357
      3          1           0        1.077999    0.000000   -0.057729
      4          1           0       -0.538999   -0.933574   -0.057729
      5          1           0       -0.538999    0.933574   -0.057729
      6          1           0        0.000000    0.000000    2.763813
 ---------------------------------------------------------------------

 SCF Done:  E(ULC-B+HF-LYP) =  -40.8713594098     A.U. after   12 cycles

 Alpha  occ. eigenvalues --  -10.14687  -0.85916  -0.57017  -0.56025  -0.56025
 Alpha  occ. eigenvalues --   -0.35638
 Alpha virt. eigenvalues --    0.06944   0.09044   0.09044   0.11353   0.19622
 Alpha virt. eigenvalues --    0.23174   0.23174   0.25209   0.36902   0.36902
 Alpha virt. eigenvalues --    0.40181   0.40181   0.41465   0.48419   0.59546

  Beta  occ. eigenvalues --  -10.13262  -0.81448  -0.55071  -0.54977  -0.54977
  Beta virt. eigenvalues --    0.01830   0.07357   0.08961   0.08962   0.11804
  Beta virt. eigenvalues --    0.21714   0.23448   0.23448   0.26447   0.37956
  Beta virt. eigenvalues --    0.37956   0.40220   0.40220   0.42906   0.49549

 Mulliken atomic charges:
              1
     1  C   -0.583537
     2  H    0.031396
     3  H    0.199442
     4  H    0.199444
     5  H    0.199444
     6  H   -0.046191
 Sum of Mulliken atomic charges =   0.00000

 Dipole moment (field-independent basis, Debye):
    X=              0.0000    Y=              0.0000    Z=             -0.2614  Tot=              0.2614
 Quadrupole moment (field-independent basis, Debye-Ang):
   XX=             -9.3928   YY=             -9.3928   ZZ=            -11.5209
   XY=              0.0000   XZ=              0.0000   YZ=              0.0000

 Normal termination of Gaussian 09 at Wed Nov  3 01:42:25 2010.
