 Gaussian 09, Revision A.02,
 Gaussian 09:  EM64L-G09RevA.02 11-Jun-2009

 -------------------------------------------
 #p lc-blyp/6-311+g(3df,2p) nosymm scf=tight
 -------------------------------------------

 --------
 12 H_CH4
 --------
 Symbolic Z-matrix:
 Charge =  0 Multiplicity = 2

                          Input orientation:
 ---------------------------------------------------------------------
 Center     Atomic      Atomic             Coordinates (Angstroms)
 Number     Number       Type             X           Y           Z
 ---------------------------------------------------------------------
      1          6           0        0.000000    0.000000    0.000000
      2          1           0        0.000000    0.000000    1.101200
      3          1           0        1.029219    0.000000   -0.357400
      4          1           0       -0.514610   -0.891330   -0.357400
      5          1           0       -0.514610    0.891330   -0.357400
      6          1           0        0.000000    0.000000    2.620110
 ---------------------------------------------------------------------

 SCF Done:  E(ULC-B+HF-LYP) =  -40.8792961531     A.U. after   12 cycles

 Alpha  occ. eigenvalues --  -10.11811  -0.86635  -0.56429  -0.52973  -0.52973
 Alpha  occ. eigenvalues --   -0.41345
 Alpha virt. eigenvalues --    0.06709   0.09387   0.09387   0.10842   0.22345
 Alpha virt. eigenvalues --    0.22345   0.25397   0.28232   0.35706   0.35706
 Alpha virt. eigenvalues --    0.37775   0.41569   0.41569   0.45429   0.63347

  Beta  occ. eigenvalues --  -10.11600  -0.86029  -0.52996  -0.52835  -0.52835
  Beta virt. eigenvalues --   -0.01424   0.07226   0.09287   0.09287   0.11370
  Beta virt. eigenvalues --    0.22408   0.22408   0.25908   0.28731   0.35823
  Beta virt. eigenvalues --    0.35823   0.39687   0.41520   0.41520   0.49720

 Mulliken atomic charges:
              1
     1  C   -0.701836
     2  H    0.212211
     3  H    0.168492
     4  H    0.168494
     5  H    0.168494
     6  H   -0.015854
 Sum of Mulliken atomic charges =   0.00000

 Dipole moment (field-independent basis, Debye):
    X=              0.0000    Y=              0.0000    Z=             -0.2394  Tot=              0.2394
 Quadrupole moment (field-independent basis, Debye-Ang):
   XX=             -9.8628   YY=             -9.8628   ZZ=            -10.7858
   XY=              0.0000   XZ=              0.0000   YZ=              0.0000

 Normal termination of Gaussian 09 at Wed Nov  3 01:14:40 2010.
