 Gaussian 09, Revision A.02,
 Gaussian 09:  EM64L-G09RevA.02 11-Jun-2009

 -------------------------------------------
 #p lc-blyp/6-311+g(3df,2p) nosymm scf=tight
 -------------------------------------------

 -------
 3 H_CH4
 -------
 Symbolic Z-matrix:
 Charge =  0 Multiplicity = 2

                          Input orientation:
 ---------------------------------------------------------------------
 Center     Atomic      Atomic             Coordinates (Angstroms)
 Number     Number       Type             X           Y           Z
 ---------------------------------------------------------------------
      1          6           0        0.000000    0.000000    0.000000
      2          1           0        0.000000    0.000000    1.323823
      3          1           0        1.051188    0.000000   -0.272751
      4          1           0       -0.525594   -0.910355   -0.272751
      5          1           0       -0.525594    0.910355   -0.272751
      6          1           0        0.000000    0.000000    2.265279
 ---------------------------------------------------------------------

 SCF Done:  E(ULC-B+HF-LYP) =  -40.8621979821     A.U. after   13 cycles

 Alpha  occ. eigenvalues --  -10.14364  -0.87476  -0.60011  -0.55044  -0.55044
 Alpha  occ. eigenvalues --   -0.33973
 Alpha virt. eigenvalues --    0.06814   0.09116   0.09117   0.10113   0.22139
 Alpha virt. eigenvalues --    0.22139   0.23871   0.27597   0.34825   0.34825
 Alpha virt. eigenvalues --    0.40597   0.40643   0.40643   0.46950   0.62625

  Beta  occ. eigenvalues --  -10.13391  -0.84882  -0.54366  -0.54366  -0.53247
  Beta virt. eigenvalues --    0.00707   0.07746   0.09048   0.09048   0.09911
  Beta virt. eigenvalues --    0.22444   0.22444   0.24784   0.29130   0.35217
  Beta virt. eigenvalues --    0.35217   0.40688   0.40688   0.41645   0.49699

 Mulliken atomic charges:
              1
     1  C   -0.589651
     2  H    0.098007
     3  H    0.183535
     4  H    0.183537
     5  H    0.183537
     6  H   -0.058964
 Sum of Mulliken atomic charges =   0.00000

 Dipole moment (field-independent basis, Debye):
    X=              0.0000    Y=              0.0000    Z=             -0.7130  Tot=              0.7130
 Quadrupole moment (field-independent basis, Debye-Ang):
   XX=             -9.6108   YY=             -9.6108   ZZ=            -12.1566
   XY=              0.0000   XZ=              0.0000   YZ=              0.0000

 Normal termination of Gaussian 09 at Wed Nov  3 01:09:03 2010.
