 Gaussian 09, Revision A.02,
 Gaussian 09:  EM64L-G09RevA.02 11-Jun-2009

 -------------------------------------------
 #p lc-blyp/6-311+g(3df,2p) nosymm scf=tight
 -------------------------------------------

 --------
 42 H_CH4
 --------
 Symbolic Z-matrix:
 Charge =  0 Multiplicity = 2

                          Input orientation:
 ---------------------------------------------------------------------
 Center     Atomic      Atomic             Coordinates (Angstroms)
 Number     Number       Type             X           Y           Z
 ---------------------------------------------------------------------
      1          6           0        0.000000    0.000000    0.000000
      2          1           0        0.000000    0.000000    1.089269
      3          1           0        1.027016    0.000000   -0.363054
      4          1           0       -0.513508   -0.889422   -0.363054
      5          1           0       -0.513508    0.889422   -0.363054
      6          1           0        0.000000    0.000000    3.962203
 ---------------------------------------------------------------------

 SCF Done:  E(ULC-B+HF-LYP) =  -40.8835747011     A.U. after   10 cycles

 Alpha  occ. eigenvalues --  -10.11330  -0.85946  -0.52641  -0.52524  -0.52524
 Alpha  occ. eigenvalues --   -0.45008
 Alpha virt. eigenvalues --    0.06280   0.09654   0.09655   0.10676   0.22676
 Alpha virt. eigenvalues --    0.22676   0.22847   0.27314   0.36598   0.36835
 Alpha virt. eigenvalues --    0.36835   0.41862   0.41863   0.42720   0.62331

  Beta  occ. eigenvalues --  -10.11322  -0.85924  -0.52519  -0.52519  -0.52516
  Beta virt. eigenvalues --   -0.02317   0.06555   0.09566   0.09566   0.11078
  Beta virt. eigenvalues --    0.22663   0.22663   0.23180   0.27286   0.36825
  Beta virt. eigenvalues --    0.36825   0.39930   0.41845   0.41845   0.45909

 Mulliken atomic charges:
              1
     1  C   -0.665868
     2  H    0.164147
     3  H    0.166437
     4  H    0.166437
     5  H    0.166437
     6  H    0.002410
 Sum of Mulliken atomic charges =   0.00000

 Dipole moment (field-independent basis, Debye):
    X=              0.0000    Y=              0.0000    Z=              0.0114  Tot=              0.0114
 Quadrupole moment (field-independent basis, Debye-Ang):
   XX=             -9.9512   YY=             -9.9512   ZZ=             -9.8469
   XY=              0.0000   XZ=              0.0000   YZ=              0.0000

 Normal termination of Gaussian 09 at Wed Nov  3 01:31:11 2010.
