 Gaussian 09, Revision A.02,
 Gaussian 09:  EM64L-G09RevA.02 11-Jun-2009

 -------------------------------------------
 #p lc-blyp/6-311+g(3df,2p) nosymm scf=tight
 -------------------------------------------

 ---------
 25 H2+CH3
 ---------
 Symbolic Z-matrix:
 Charge =  0 Multiplicity = 2

                          Input orientation:
 ---------------------------------------------------------------------
 Center     Atomic      Atomic             Coordinates (Angstroms)
 Number     Number       Type             X           Y           Z
 ---------------------------------------------------------------------
      1          6           0        0.000000    0.000000    0.000000
      2          1           0        0.000000    0.000000    2.722101
      3          1           0        1.079254    0.000000   -0.004901
      4          1           0       -0.539627   -0.934661   -0.004901
      5          1           0       -0.539627    0.934661   -0.004901
      6          1           0        0.000000    0.000000    3.466343
 ---------------------------------------------------------------------

 SCF Done:  E(ULC-B+HF-LYP) =  -40.8752244365     A.U. after   11 cycles

 Alpha  occ. eigenvalues --  -10.14739  -0.85456  -0.56412  -0.55913  -0.55913
 Alpha  occ. eigenvalues --   -0.36583
 Alpha virt. eigenvalues --    0.06923   0.09178   0.09178   0.12632   0.16714
 Alpha virt. eigenvalues --    0.23362   0.23362   0.24424   0.36783   0.38329
 Alpha virt. eigenvalues --    0.38329   0.40327   0.40327   0.49015   0.61060

  Beta  occ. eigenvalues --  -10.13317  -0.80856  -0.56066  -0.54851  -0.54851
  Beta virt. eigenvalues --    0.01581   0.06934   0.09028   0.09028   0.13931
  Beta virt. eigenvalues --    0.18389   0.23601   0.23602   0.25421   0.37311
  Beta virt. eigenvalues --    0.39486   0.39486   0.40324   0.40324   0.50706

 Mulliken atomic charges:
              1
     1  C   -0.576424
     2  H   -0.001597
     3  H    0.194383
     4  H    0.194381
     5  H    0.194381
     6  H   -0.005124
 Sum of Mulliken atomic charges =   0.00000

 Dipole moment (field-independent basis, Debye):
    X=              0.0000    Y=              0.0000    Z=             -0.0834  Tot=              0.0834
 Quadrupole moment (field-independent basis, Debye-Ang):
   XX=             -9.4551   YY=             -9.4551   ZZ=            -11.0907
   XY=              0.0000   XZ=              0.0000   YZ=              0.0000

 Normal termination of Gaussian 09 at Wed Nov  3 01:50:10 2010.
