 Gaussian 09, Revision A.02,
 Gaussian 09:  EM64L-G09RevA.02 11-Jun-2009

 -------------------------------------------
 #p lc-blyp/6-311+g(3df,2p) nosymm scf=tight
 -------------------------------------------

 ---------
 10 H2+CH3
 ---------
 Symbolic Z-matrix:
 Charge =  0 Multiplicity = 2

                          Input orientation:
 ---------------------------------------------------------------------
 Center     Atomic      Atomic             Coordinates (Angstroms)
 Number     Number       Type             X           Y           Z
 ---------------------------------------------------------------------
      1          6           0        0.000000    0.000000    0.000000
      2          1           0        0.000000    0.000000    1.885087
      3          1           0        1.076367    0.000000   -0.087806
      4          1           0       -0.538183   -0.932161   -0.087806
      5          1           0       -0.538183    0.932161   -0.087806
      6          1           0        0.000000    0.000000    2.646529
 ---------------------------------------------------------------------

 SCF Done:  E(ULC-B+HF-LYP) =  -40.8693099552     A.U. after   12 cycles

 Alpha  occ. eigenvalues --  -10.14685  -0.86104  -0.57346  -0.56013  -0.56013
 Alpha  occ. eigenvalues --   -0.35227
 Alpha virt. eigenvalues --    0.06922   0.09029   0.09029   0.11076   0.20351
 Alpha virt. eigenvalues --    0.23072   0.23072   0.25396   0.36522   0.36522
 Alpha virt. eigenvalues --    0.40192   0.40192   0.42511   0.47628   0.60054

  Beta  occ. eigenvalues --  -10.13266  -0.81737  -0.54974  -0.54974  -0.54737
  Beta virt. eigenvalues --    0.01822   0.07452   0.08962   0.08962   0.11386
  Beta virt. eigenvalues --    0.22382   0.23363   0.23363   0.26718   0.37493
  Beta virt. eigenvalues --    0.37493   0.40265   0.40265   0.44237   0.48565

 Mulliken atomic charges:
              1
     1  C   -0.577291
     2  H    0.035864
     3  H    0.198670
     4  H    0.198671
     5  H    0.198671
     6  H   -0.054586
 Sum of Mulliken atomic charges =   0.00000

 Dipole moment (field-independent basis, Debye):
    X=              0.0000    Y=              0.0000    Z=             -0.3421  Tot=              0.3421
 Quadrupole moment (field-independent basis, Debye-Ang):
   XX=             -9.3879   YY=             -9.3879   ZZ=            -11.6355
   XY=              0.0000   XZ=              0.0000   YZ=              0.0000

 Normal termination of Gaussian 09 at Wed Nov  3 01:41:10 2010.
