 Gaussian 09, Revision A.02,
 Gaussian 09:  EM64L-G09RevA.02 11-Jun-2009

 -------------------------------------------
 #p lc-blyp/6-311+g(3df,2p) nosymm scf=tight
 -------------------------------------------

 --------
 23 H_CH4
 --------
 Symbolic Z-matrix:
 Charge =  0 Multiplicity = 2

                          Input orientation:
 ---------------------------------------------------------------------
 Center     Atomic      Atomic             Coordinates (Angstroms)
 Number     Number       Type             X           Y           Z
 ---------------------------------------------------------------------
      1          6           0        0.000000    0.000000    0.000000
      2          1           0        0.000000    0.000000    1.090088
      3          1           0        1.027183    0.000000   -0.362935
      4          1           0       -0.513591   -0.889566   -0.362935
      5          1           0       -0.513591    0.889566   -0.362935
      6          1           0        0.000000    0.000000    3.212306
 ---------------------------------------------------------------------

 SCF Done:  E(ULC-B+HF-LYP) =  -40.8832757611     A.U. after   11 cycles

 Alpha  occ. eigenvalues --  -10.11376  -0.86055  -0.53526  -0.52572  -0.52572
 Alpha  occ. eigenvalues --   -0.44323
 Alpha virt. eigenvalues --    0.06541   0.09549   0.09549   0.11065   0.22604
 Alpha virt. eigenvalues --    0.22604   0.25279   0.26789   0.35586   0.36573
 Alpha virt. eigenvalues --    0.36573   0.41863   0.41863   0.44853   0.64447

  Beta  occ. eigenvalues --  -10.11330  -0.85916  -0.52574  -0.52541  -0.52541
  Beta virt. eigenvalues --   -0.02233   0.06919   0.09438   0.09438   0.11571
  Beta virt. eigenvalues --    0.22604   0.22604   0.25692   0.27027   0.36573
  Beta virt. eigenvalues --    0.36573   0.38745   0.41824   0.41824   0.48270

 Mulliken atomic charges:
              1
     1  C   -0.686921
     2  H    0.186507
     3  H    0.166412
     4  H    0.166413
     5  H    0.166413
     6  H    0.001176
 Sum of Mulliken atomic charges =   0.00000

 Dipole moment (field-independent basis, Debye):
    X=              0.0000    Y=              0.0000    Z=             -0.0269  Tot=              0.0269
 Quadrupole moment (field-independent basis, Debye-Ang):
   XX=             -9.9339   YY=             -9.9339   ZZ=            -10.0349
   XY=              0.0000   XZ=              0.0000   YZ=              0.0000

 Normal termination of Gaussian 09 at Wed Nov  3 01:21:04 2010.
