 Gaussian 09, Revision A.02,
 Gaussian 09:  EM64L-G09RevA.02 11-Jun-2009

 -------------------------------------------
 #p lc-blyp/6-311+g(3df,2p) nosymm scf=tight
 -------------------------------------------

 --------
 45 H_CH4
 --------
 Symbolic Z-matrix:
 Charge =  0 Multiplicity = 2

                          Input orientation:
 ---------------------------------------------------------------------
 Center     Atomic      Atomic             Coordinates (Angstroms)
 Number     Number       Type             X           Y           Z
 ---------------------------------------------------------------------
      1          6           0        0.000000    0.000000    0.000000
      2          1           0        0.000000    0.000000    1.089267
      3          1           0        1.027014    0.000000   -0.363050
      4          1           0       -0.513507   -0.889421   -0.363050
      5          1           0       -0.513507    0.889421   -0.363050
      6          1           0        0.000000    0.000000    4.008073
 ---------------------------------------------------------------------

 SCF Done:  E(ULC-B+HF-LYP) =  -40.8835643455     A.U. after   10 cycles

 Alpha  occ. eigenvalues --  -10.11329  -0.85944  -0.52625  -0.52523  -0.52523
 Alpha  occ. eigenvalues --   -0.45015
 Alpha virt. eigenvalues --    0.06265   0.09658   0.09659   0.10641   0.22677
 Alpha virt. eigenvalues --    0.22677   0.22742   0.27339   0.36725   0.36839
 Alpha virt. eigenvalues --    0.36839   0.41864   0.41865   0.42551   0.61998

  Beta  occ. eigenvalues --  -10.11323  -0.85924  -0.52519  -0.52519  -0.52516
  Beta virt. eigenvalues --   -0.02310   0.06533   0.09572   0.09573   0.11035
  Beta virt. eigenvalues --    0.22665   0.22665   0.23072   0.27305   0.36829
  Beta virt. eigenvalues --    0.36829   0.40072   0.41847   0.41847   0.45727

 Mulliken atomic charges:
              1
     1  C   -0.665323
     2  H    0.163600
     3  H    0.166458
     4  H    0.166459
     5  H    0.166459
     6  H    0.002348
 Sum of Mulliken atomic charges =   0.00000

 Dipole moment (field-independent basis, Debye):
    X=              0.0000    Y=              0.0000    Z=              0.0118  Tot=              0.0118
 Quadrupole moment (field-independent basis, Debye-Ang):
   XX=             -9.9513   YY=             -9.9513   ZZ=             -9.8444
   XY=              0.0000   XZ=              0.0000   YZ=              0.0000

 Normal termination of Gaussian 09 at Wed Nov  3 01:32:45 2010.
