 Gaussian 09, Revision A.02,
 Gaussian 09:  EM64L-G09RevA.02 11-Jun-2009

 -------------------------------------------
 #p lc-blyp/6-311+g(3df,2p) nosymm scf=tight
 -------------------------------------------

 --------
 30 H_CH4
 --------
 Symbolic Z-matrix:
 Charge =  0 Multiplicity = 2

                          Input orientation:
 ---------------------------------------------------------------------
 Center     Atomic      Atomic             Coordinates (Angstroms)
 Number     Number       Type             X           Y           Z
 ---------------------------------------------------------------------
      1          6           0        0.000000    0.000000    0.000000
      2          1           0        0.000000    0.000000    1.089395
      3          1           0        1.027049    0.000000   -0.363088
      4          1           0       -0.513524   -0.889450   -0.363088
      5          1           0       -0.513524    0.889450   -0.363088
      6          1           0        0.000000    0.000000    3.547921
 ---------------------------------------------------------------------

 SCF Done:  E(ULC-B+HF-LYP) =  -40.8836009703     A.U. after   10 cycles

 Alpha  occ. eigenvalues --  -10.11340  -0.85978  -0.52926  -0.52535  -0.52535
 Alpha  occ. eigenvalues --   -0.44822
 Alpha virt. eigenvalues --    0.06424   0.09607   0.09607   0.10957   0.22651
 Alpha virt. eigenvalues --    0.22651   0.24092   0.27021   0.35673   0.36756
 Alpha virt. eigenvalues --    0.36756   0.41862   0.41862   0.44210   0.64634

  Beta  occ. eigenvalues --  -10.11320  -0.85917  -0.52530  -0.52521  -0.52521
  Beta virt. eigenvalues --   -0.02336   0.06753   0.09500   0.09501   0.11422
  Beta virt. eigenvalues --    0.22641   0.22641   0.24476   0.27100   0.36743
  Beta virt. eigenvalues --    0.36743   0.38964   0.41837   0.41837   0.47458

 Mulliken atomic charges:
              1
     1  C   -0.676354
     2  H    0.174975
     3  H    0.166286
     4  H    0.166287
     5  H    0.166287
     6  H    0.002519
 Sum of Mulliken atomic charges =   0.00000

 Dipole moment (field-independent basis, Debye):
    X=              0.0000    Y=              0.0000    Z=              0.0014  Tot=              0.0014
 Quadrupole moment (field-independent basis, Debye-Ang):
   XX=             -9.9466   YY=             -9.9466   ZZ=             -9.9022
   XY=              0.0000   XZ=              0.0000   YZ=              0.0000

 Normal termination of Gaussian 09 at Wed Nov  3 01:24:55 2010.
