 Gaussian 09, Revision A.02,
 Gaussian 09:  EM64L-G09RevA.02 11-Jun-2009

 -------------------------------------------
 #p lc-blyp/6-311+g(3df,2p) nosymm scf=tight
 -------------------------------------------

 --------
 5 H2+CH3
 --------
 Symbolic Z-matrix:
 Charge =  0 Multiplicity = 2

                          Input orientation:
 ---------------------------------------------------------------------
 Center     Atomic      Atomic             Coordinates (Angstroms)
 Number     Number       Type             X           Y           Z
 ---------------------------------------------------------------------
      1          6           0        0.000000    0.000000    0.000000
      2          1           0        0.000000    0.000000    1.572343
      3          1           0        1.066556    0.000000   -0.185110
      4          1           0       -0.533278   -0.923665   -0.185110
      5          1           0       -0.533278    0.923665   -0.185110
      6          1           0        0.000000    0.000000    2.386708
 ---------------------------------------------------------------------

 SCF Done:  E(ULC-B+HF-LYP) =  -40.8624631866     A.U. after   12 cycles

 Alpha  occ. eigenvalues --  -10.14742  -0.86830  -0.58746  -0.55769  -0.55769
 Alpha  occ. eigenvalues --   -0.33878
 Alpha virt. eigenvalues --    0.06864   0.09042   0.09042   0.10385   0.22304
 Alpha virt. eigenvalues --    0.22601   0.22601   0.26208   0.35427   0.35427
 Alpha virt. eigenvalues --    0.40379   0.40379   0.43076   0.46537   0.62345

  Beta  occ. eigenvalues --  -10.13421  -0.83070  -0.54817  -0.54817  -0.53679
  Beta virt. eigenvalues --    0.01468   0.07727   0.08999   0.08999   0.10251
  Beta virt. eigenvalues --    0.22950   0.22950   0.23887   0.27833   0.36087
  Beta virt. eigenvalues --    0.36087   0.40494   0.40494   0.44855   0.47774

 Mulliken atomic charges:
              1
     1  C   -0.558371
     2  H    0.041286
     3  H    0.193179
     4  H    0.193176
     5  H    0.193176
     6  H   -0.062446
 Sum of Mulliken atomic charges =   0.00000

 Dipole moment (field-independent basis, Debye):
    X=              0.0000    Y=              0.0000    Z=             -0.5807  Tot=              0.5807
 Quadrupole moment (field-independent basis, Debye-Ang):
   XX=             -9.4497   YY=             -9.4497   ZZ=            -11.9543
   XY=              0.0000   XZ=              0.0000   YZ=              0.0000

 Normal termination of Gaussian 09 at Wed Nov  3 01:38:03 2010.
