 Gaussian 09, Revision A.02,
 Gaussian 09:  EM64L-G09RevA.02 11-Jun-2009

 -------------------------------------------
 #p lc-blyp/6-311+g(3df,2p) nosymm scf=tight
 -------------------------------------------

 --------
 17 H_CH4
 --------
 Symbolic Z-matrix:
 Charge =  0 Multiplicity = 2

                          Input orientation:
 ---------------------------------------------------------------------
 Center     Atomic      Atomic             Coordinates (Angstroms)
 Number     Number       Type             X           Y           Z
 ---------------------------------------------------------------------
      1          6           0        0.000000    0.000000    0.000000
      2          1           0        0.000000    0.000000    1.092724
      3          1           0        1.027690    0.000000   -0.361780
      4          1           0       -0.513845   -0.890005   -0.361780
      5          1           0       -0.513845    0.890005   -0.361780
      6          1           0        0.000000    0.000000    2.898723
 ---------------------------------------------------------------------

 SCF Done:  E(ULC-B+HF-LYP) =  -40.8820758442     A.U. after   11 cycles

 Alpha  occ. eigenvalues --  -10.11498  -0.86246  -0.54678  -0.52689  -0.52689
 Alpha  occ. eigenvalues --   -0.43231
 Alpha virt. eigenvalues --    0.06641   0.09475   0.09475   0.11026   0.22509
 Alpha virt. eigenvalues --    0.22509   0.25667   0.27299   0.36219   0.36219
 Alpha virt. eigenvalues --    0.36371   0.41787   0.41787   0.45109   0.63999

  Beta  occ. eigenvalues --  -10.11395  -0.85945  -0.52704  -0.52621  -0.52621
  Beta virt. eigenvalues --   -0.01953   0.07078   0.09368   0.09368   0.11564
  Beta virt. eigenvalues --    0.22531   0.22531   0.26105   0.27685   0.36260
  Beta virt. eigenvalues --    0.36260   0.39088   0.41735   0.41735   0.48910

 Mulliken atomic charges:
              1
     1  C   -0.694177
     2  H    0.196653
     3  H    0.167044
     4  H    0.167046
     5  H    0.167046
     6  H   -0.003612
 Sum of Mulliken atomic charges =   0.00000

 Dipole moment (field-independent basis, Debye):
    X=              0.0000    Y=              0.0000    Z=             -0.0980  Tot=              0.0980
 Quadrupole moment (field-independent basis, Debye-Ang):
   XX=             -9.9081   YY=             -9.9081   ZZ=            -10.3139
   XY=              0.0000   XZ=              0.0000   YZ=              0.0000

 Normal termination of Gaussian 09 at Wed Nov  3 01:17:37 2010.
