 Gaussian 09, Revision A.02,
 Gaussian 09:  EM64L-G09RevA.02 11-Jun-2009

 -------------------------------------------
 #p lc-blyp/6-311+g(3df,2p) nosymm scf=tight
 -------------------------------------------

 --------
 7 H2+CH3
 --------
 Symbolic Z-matrix:
 Charge =  0 Multiplicity = 2

                          Input orientation:
 ---------------------------------------------------------------------
 Center     Atomic      Atomic             Coordinates (Angstroms)
 Number     Number       Type             X           Y           Z
 ---------------------------------------------------------------------
      1          6           0        0.000000    0.000000    0.000000
      2          1           0        0.000000    0.000000    1.693098
      3          1           0        1.071529    0.000000   -0.144341
      4          1           0       -0.535765   -0.927972   -0.144341
      5          1           0       -0.535765    0.927972   -0.144341
      6          1           0        0.000000    0.000000    2.477254
 ---------------------------------------------------------------------

 SCF Done:  E(ULC-B+HF-LYP) =  -40.8651612603     A.U. after   12 cycles

 Alpha  occ. eigenvalues --  -10.14711  -0.86506  -0.58124  -0.55913  -0.55913
 Alpha  occ. eigenvalues --   -0.34410
 Alpha virt. eigenvalues --    0.06885   0.09027   0.09028   0.10641   0.21546
 Alpha virt. eigenvalues --    0.22821   0.22821   0.25822   0.35847   0.35847
 Alpha virt. eigenvalues --    0.40284   0.40284   0.43514   0.46562   0.61352

  Beta  occ. eigenvalues --  -10.13328  -0.82427  -0.54909  -0.54909  -0.54128
  Beta virt. eigenvalues --    0.01689   0.07621   0.08980   0.08980   0.10688
  Beta virt. eigenvalues --    0.23150   0.23150   0.23359   0.27323   0.36640
  Beta virt. eigenvalues --    0.36640   0.40397   0.40397   0.45834   0.47085

 Mulliken atomic charges:
              1
     1  C   -0.564617
     2  H    0.038395
     3  H    0.196059
     4  H    0.196058
     5  H    0.196058
     6  H   -0.061953
 Sum of Mulliken atomic charges =   0.00000

 Dipole moment (field-independent basis, Debye):
    X=              0.0000    Y=              0.0000    Z=             -0.4837  Tot=              0.4837
 Quadrupole moment (field-independent basis, Debye-Ang):
   XX=             -9.4073   YY=             -9.4073   ZZ=            -11.8219
   XY=              0.0000   XZ=              0.0000   YZ=              0.0000

 Normal termination of Gaussian 09 at Wed Nov  3 01:39:18 2010.
