 Gaussian 09, Revision A.02,
 Gaussian 09:  EM64L-G09RevA.02 11-Jun-2009

 -------------------------------------------
 #p lc-blyp/6-311+g(3df,2p) nosymm scf=tight
 -------------------------------------------

 ---------
 34 H2+CH3
 ---------
 Symbolic Z-matrix:
 Charge =  0 Multiplicity = 2

                          Input orientation:
 ---------------------------------------------------------------------
 Center     Atomic      Atomic             Coordinates (Angstroms)
 Number     Number       Type             X           Y           Z
 ---------------------------------------------------------------------
      1          6           0        0.000000    0.000000    0.000000
      2          1           0        0.000000    0.000000    3.068513
      3          1           0        1.079219    0.000000   -0.003717
      4          1           0       -0.539609   -0.934631   -0.003717
      5          1           0       -0.539609    0.934631   -0.003717
      6          1           0        0.000000    0.000000    3.811967
 ---------------------------------------------------------------------

 SCF Done:  E(ULC-B+HF-LYP) =  -40.8751980458     A.U. after   11 cycles

 Alpha  occ. eigenvalues --  -10.14728  -0.85389  -0.56407  -0.55876  -0.55876
 Alpha  occ. eigenvalues --   -0.36630
 Alpha virt. eigenvalues --    0.06876   0.09240   0.09240   0.12798   0.16214
 Alpha virt. eigenvalues --    0.23393   0.23393   0.24052   0.35829   0.38872
 Alpha virt. eigenvalues --    0.38872   0.40351   0.40351   0.46939   0.62897

  Beta  occ. eigenvalues --  -10.13308  -0.80787  -0.56259  -0.54814  -0.54814
  Beta virt. eigenvalues --    0.01490   0.06794   0.09066   0.09066   0.14892
  Beta virt. eigenvalues --    0.17138   0.23626   0.23626   0.24971   0.36066
  Beta virt. eigenvalues --    0.40026   0.40026   0.40387   0.40388   0.48618

 Mulliken atomic charges:
              1
     1  C   -0.569199
     2  H   -0.006510
     3  H    0.191330
     4  H    0.191332
     5  H    0.191332
     6  H    0.001714
 Sum of Mulliken atomic charges =   0.00000

 Dipole moment (field-independent basis, Debye):
    X=              0.0000    Y=              0.0000    Z=             -0.0641  Tot=              0.0641
 Quadrupole moment (field-independent basis, Debye-Ang):
   XX=             -9.4675   YY=             -9.4674   ZZ=            -11.0109
   XY=              0.0000   XZ=              0.0000   YZ=              0.0000

 Normal termination of Gaussian 09 at Wed Nov  3 01:55:18 2010.
