 Gaussian 09, Revision A.02,
 Gaussian 09:  EM64L-G09RevA.02 11-Jun-2009

 -------------------------------------------
 #p lc-blyp/6-311+g(3df,2p) nosymm scf=tight
 -------------------------------------------

 --------
 18 H_CH4
 --------
 Symbolic Z-matrix:
 Charge =  0 Multiplicity = 2

                          Input orientation:
 ---------------------------------------------------------------------
 Center     Atomic      Atomic             Coordinates (Angstroms)
 Number     Number       Type             X           Y           Z
 ---------------------------------------------------------------------
      1          6           0        0.000000    0.000000    0.000000
      2          1           0        0.000000    0.000000    1.091991
      3          1           0        1.027549    0.000000   -0.362134
      4          1           0       -0.513775   -0.889884   -0.362134
      5          1           0       -0.513775    0.889884   -0.362134
      6          1           0        0.000000    0.000000    2.952638
 ---------------------------------------------------------------------

 SCF Done:  E(ULC-B+HF-LYP) =  -40.8823862412     A.U. after   11 cycles

 Alpha  occ. eigenvalues --  -10.11466  -0.86200  -0.54426  -0.52658  -0.52658
 Alpha  occ. eigenvalues --   -0.43481
 Alpha virt. eigenvalues --    0.06625   0.09489   0.09490   0.11043   0.22531
 Alpha virt. eigenvalues --    0.22531   0.25682   0.27136   0.36168   0.36296
 Alpha virt. eigenvalues --    0.36296   0.41810   0.41810   0.45065   0.64101

  Beta  occ. eigenvalues --  -10.11376  -0.85936  -0.52671  -0.52599  -0.52599
  Beta virt. eigenvalues --   -0.02020   0.07050   0.09381   0.09381   0.11577
  Beta virt. eigenvalues --    0.22548   0.22548   0.26108   0.27505   0.36327
  Beta virt. eigenvalues --    0.36327   0.38993   0.41760   0.41760   0.48780

 Mulliken atomic charges:
              1
     1  C   -0.692889
     2  H    0.194574
     3  H    0.166882
     4  H    0.166883
     5  H    0.166883
     6  H   -0.002333
 Sum of Mulliken atomic charges =   0.00000

 Dipole moment (field-independent basis, Debye):
    X=              0.0000    Y=              0.0000    Z=             -0.0808  Tot=              0.0808
 Quadrupole moment (field-independent basis, Debye-Ang):
   XX=             -9.9140   YY=             -9.9140   ZZ=            -10.2506
   XY=              0.0000   XZ=              0.0000   YZ=              0.0000

 Normal termination of Gaussian 09 at Wed Nov  3 01:18:12 2010.
