 Gaussian 09, Revision A.02,
 Gaussian 09:  EM64L-G09RevA.02 11-Jun-2009

 -------------------------------------------
 #p lc-blyp/6-311+g(3df,2p) nosymm scf=tight
 -------------------------------------------

 ---------
 26 H2+CH3
 ---------
 Symbolic Z-matrix:
 Charge =  0 Multiplicity = 2

                          Input orientation:
 ---------------------------------------------------------------------
 Center     Atomic      Atomic             Coordinates (Angstroms)
 Number     Number       Type             X           Y           Z
 ---------------------------------------------------------------------
      1          6           0        0.000000    0.000000    0.000000
      2          1           0        0.000000    0.000000    2.768693
      3          1           0        1.079250    0.000000   -0.004627
      4          1           0       -0.539625   -0.934658   -0.004627
      5          1           0       -0.539625    0.934658   -0.004627
      6          1           0        0.000000    0.000000    3.512784
 ---------------------------------------------------------------------

 SCF Done:  E(ULC-B+HF-LYP) =  -40.8752452238     A.U. after   11 cycles

 Alpha  occ. eigenvalues --  -10.14739  -0.85445  -0.56406  -0.55908  -0.55908
 Alpha  occ. eigenvalues --   -0.36596
 Alpha virt. eigenvalues --    0.06917   0.09187   0.09187   0.12681   0.16609
 Alpha virt. eigenvalues --    0.23367   0.23367   0.24372   0.36611   0.38407
 Alpha virt. eigenvalues --    0.38408   0.40331   0.40331   0.48797   0.61390

  Beta  occ. eigenvalues --  -10.13317  -0.80844  -0.56097  -0.54846  -0.54846
  Beta virt. eigenvalues --    0.01566   0.06913   0.09033   0.09033   0.14065
  Beta virt. eigenvalues --    0.18207   0.23605   0.23605   0.25358   0.37094
  Beta virt. eigenvalues --    0.39567   0.39567   0.40330   0.40330   0.50490

 Mulliken atomic charges:
              1
     1  C   -0.575061
     2  H   -0.002655
     3  H    0.193852
     4  H    0.193850
     5  H    0.193850
     6  H   -0.003837
 Sum of Mulliken atomic charges =   0.00000

 Dipole moment (field-independent basis, Debye):
    X=              0.0000    Y=              0.0000    Z=             -0.0803  Tot=              0.0803
 Quadrupole moment (field-independent basis, Debye-Ang):
   XX=             -9.4574   YY=             -9.4574   ZZ=            -11.0769
   XY=              0.0000   XZ=              0.0000   YZ=              0.0000

 Normal termination of Gaussian 09 at Wed Nov  3 01:50:45 2010.
