 Gaussian 09, Revision A.02,
 Gaussian 09:  EM64L-G09RevA.02 11-Jun-2009

 -------------------------------------------
 #p lc-blyp/6-311+g(3df,2p) nosymm scf=tight
 -------------------------------------------

 --------
 16 H_CH4
 --------
 Symbolic Z-matrix:
 Charge =  0 Multiplicity = 2

                          Input orientation:
 ---------------------------------------------------------------------
 Center     Atomic      Atomic             Coordinates (Angstroms)
 Number     Number       Type             X           Y           Z
 ---------------------------------------------------------------------
      1          6           0        0.000000    0.000000    0.000000
      2          1           0        0.000000    0.000000    1.093658
      3          1           0        1.027867    0.000000   -0.361313
      4          1           0       -0.513934   -0.890159   -0.361313
      5          1           0       -0.513934    0.890159   -0.361313
      6          1           0        0.000000    0.000000    2.844251
 ---------------------------------------------------------------------

 SCF Done:  E(ULC-B+HF-LYP) =  -40.8817018926     A.U. after   11 cycles

 Alpha  occ. eigenvalues --  -10.11537  -0.86301  -0.54960  -0.52725  -0.52725
 Alpha  occ. eigenvalues --   -0.42947
 Alpha virt. eigenvalues --    0.06656   0.09460   0.09460   0.11003   0.22484
 Alpha virt. eigenvalues --    0.22484   0.25633   0.27478   0.36134   0.36134
 Alpha virt. eigenvalues --    0.36603   0.41758   0.41759   0.45157   0.63886

  Beta  occ. eigenvalues --  -10.11419  -0.85956  -0.52743  -0.52648  -0.52648
  Beta virt. eigenvalues --   -0.01876   0.07106   0.09354   0.09354   0.11544
  Beta virt. eigenvalues --    0.22512   0.22512   0.26086   0.27881   0.36187
  Beta virt. eigenvalues --    0.36187   0.39195   0.41705   0.41706   0.49053

 Mulliken atomic charges:
              1
     1  C   -0.695572
     2  H    0.199040
     3  H    0.167239
     4  H    0.167241
     5  H    0.167241
     6  H   -0.005188
 Sum of Mulliken atomic charges =   0.00000

 Dipole moment (field-independent basis, Debye):
    X=              0.0000    Y=              0.0000    Z=             -0.1181  Tot=              0.1181
 Quadrupole moment (field-independent basis, Debye-Ang):
   XX=             -9.9014   YY=             -9.9014   ZZ=            -10.3860
   XY=              0.0000   XZ=              0.0000   YZ=              0.0000

 Normal termination of Gaussian 09 at Wed Nov  3 01:17:03 2010.
