 Gaussian 09, Revision A.02,
 Gaussian 09:  EM64L-G09RevA.02 11-Jun-2009

 -------------------------------------------
 #p lc-blyp/6-311+g(3df,2p) nosymm scf=tight
 -------------------------------------------

 ---------
 18 H2+CH3
 ---------
 Symbolic Z-matrix:
 Charge =  0 Multiplicity = 2

                          Input orientation:
 ---------------------------------------------------------------------
 Center     Atomic      Atomic             Coordinates (Angstroms)
 Number     Number       Type             X           Y           Z
 ---------------------------------------------------------------------
      1          6           0        0.000000    0.000000    0.000000
      2          1           0        0.000000    0.000000    2.363505
      3          1           0        1.079216    0.000000   -0.012995
      4          1           0       -0.539608   -0.934629   -0.012995
      5          1           0       -0.539608    0.934629   -0.012995
      6          1           0        0.000000    0.000000    3.109998
 ---------------------------------------------------------------------

 SCF Done:  E(ULC-B+HF-LYP) =  -40.8744511034     A.U. after   12 cycles

 Alpha  occ. eigenvalues --  -10.14724  -0.85597  -0.56555  -0.55969  -0.55969
 Alpha  occ. eigenvalues --   -0.36339
 Alpha virt. eigenvalues --    0.06957   0.09111   0.09111   0.12072   0.17887
 Alpha virt. eigenvalues --    0.23308   0.23308   0.24825   0.37693   0.37693
 Alpha virt. eigenvalues --    0.38657   0.40269   0.40269   0.49708   0.59420

  Beta  occ. eigenvalues --  -10.13298  -0.81017  -0.55727  -0.54909  -0.54909
  Beta virt. eigenvalues --    0.01715   0.07123   0.08990   0.08990   0.12880
  Beta virt. eigenvalues --    0.19931   0.23558   0.23558   0.25913   0.38832
  Beta virt. eigenvalues --    0.38832   0.39575   0.40267   0.40267   0.51214

 Mulliken atomic charges:
              1
     1  C   -0.587404
     2  H    0.012133
     3  H    0.198623
     4  H    0.198624
     5  H    0.198624
     6  H   -0.020600
 Sum of Mulliken atomic charges =   0.00000

 Dipole moment (field-independent basis, Debye):
    X=              0.0000    Y=              0.0000    Z=             -0.1253  Tot=              0.1253
 Quadrupole moment (field-independent basis, Debye-Ang):
   XX=             -9.4289   YY=             -9.4289   ZZ=            -11.2481
   XY=              0.0000   XZ=              0.0000   YZ=              0.0000

 Normal termination of Gaussian 09 at Wed Nov  3 01:46:10 2010.
