 Gaussian 09, Revision A.02,
 Gaussian 09:  EM64L-G09RevA.02 11-Jun-2009

 -------------------------------------------
 #p lc-blyp/6-311+g(3df,2p) nosymm scf=tight
 -------------------------------------------

 -------
 6 H_CH4
 -------
 Symbolic Z-matrix:
 Charge =  0 Multiplicity = 2

                          Input orientation:
 ---------------------------------------------------------------------
 Center     Atomic      Atomic             Coordinates (Angstroms)
 Number     Number       Type             X           Y           Z
 ---------------------------------------------------------------------
      1          6           0        0.000000    0.000000    0.000000
      2          1           0        0.000000    0.000000    1.185588
      3          1           0        1.039580    0.000000   -0.321594
      4          1           0       -0.519790   -0.900303   -0.321594
      5          1           0       -0.519790    0.900303   -0.321594
      6          1           0        0.000000    0.000000    2.274950
 ---------------------------------------------------------------------

 SCF Done:  E(ULC-B+HF-LYP) =  -40.8687919552     A.U. after   12 cycles

 Alpha  occ. eigenvalues --  -10.13317  -0.87596  -0.59869  -0.54192  -0.54192
 Alpha  occ. eigenvalues --   -0.36079
 Alpha virt. eigenvalues --    0.06769   0.09204   0.09204   0.10271   0.22025
 Alpha virt. eigenvalues --    0.22025   0.24659   0.28728   0.34831   0.34831
 Alpha virt. eigenvalues --    0.39454   0.40916   0.40917   0.46657   0.62517

  Beta  occ. eigenvalues --  -10.12691  -0.85893  -0.53770  -0.53770  -0.53633
  Beta virt. eigenvalues --    0.00114   0.07552   0.09113   0.09114   0.10435
  Beta virt. eigenvalues --    0.22232   0.22232   0.25280   0.29777   0.35109
  Beta virt. eigenvalues --    0.35109   0.40350   0.40911   0.40911   0.50394

 Mulliken atomic charges:
              1
     1  C   -0.659043
     2  H    0.183449
     3  H    0.175627
     4  H    0.175632
     5  H    0.175632
     6  H   -0.051297
 Sum of Mulliken atomic charges =   0.00000

 Dipole moment (field-independent basis, Debye):
    X=              0.0000    Y=              0.0000    Z=             -0.6316  Tot=              0.6316
 Quadrupole moment (field-independent basis, Debye-Ang):
   XX=             -9.7175   YY=             -9.7175   ZZ=            -11.9231
   XY=              0.0000   XZ=              0.0000   YZ=              0.0000

 Normal termination of Gaussian 09 at Wed Nov  3 01:10:56 2010.
