 Gaussian 09, Revision A.02,
 Gaussian 09:  EM64L-G09RevA.02 11-Jun-2009

 -------------------------------------------
 #p lc-blyp/6-311+g(3df,2p) nosymm scf=tight
 -------------------------------------------

 --------
 22 H_CH4
 --------
 Symbolic Z-matrix:
 Charge =  0 Multiplicity = 2

                          Input orientation:
 ---------------------------------------------------------------------
 Center     Atomic      Atomic             Coordinates (Angstroms)
 Number     Number       Type             X           Y           Z
 ---------------------------------------------------------------------
      1          6           0        0.000000    0.000000    0.000000
      2          1           0        0.000000    0.000000    1.090316
      3          1           0        1.027227    0.000000   -0.362855
      4          1           0       -0.513613   -0.889604   -0.362855
      5          1           0       -0.513613    0.889604   -0.362855
      6          1           0        0.000000    0.000000    3.161577
 ---------------------------------------------------------------------

 SCF Done:  E(ULC-B+HF-LYP) =  -40.8831633045     A.U. after   11 cycles

 Alpha  occ. eigenvalues --  -10.11388  -0.86076  -0.53665  -0.52583  -0.52583
 Alpha  occ. eigenvalues --   -0.44198
 Alpha virt. eigenvalues --    0.06558   0.09539   0.09539   0.11068   0.22593
 Alpha virt. eigenvalues --    0.22593   0.25424   0.26794   0.35650   0.36530
 Alpha virt. eigenvalues --    0.36530   0.41858   0.41858   0.44902   0.64397

  Beta  occ. eigenvalues --  -10.11335  -0.85918  -0.52587  -0.52548  -0.52548
  Beta virt. eigenvalues --   -0.02203   0.06944   0.09427   0.09428   0.11580
  Beta virt. eigenvalues --    0.22595   0.22595   0.25836   0.27060   0.36534
  Beta virt. eigenvalues --    0.36534   0.38765   0.41817   0.41817   0.48363

 Mulliken atomic charges:
              1
     1  C   -0.688174
     2  H    0.188019
     3  H    0.166471
     4  H    0.166472
     5  H    0.166472
     6  H    0.000740
 Sum of Mulliken atomic charges =   0.00000

 Dipole moment (field-independent basis, Debye):
    X=              0.0000    Y=              0.0000    Z=             -0.0344  Tot=              0.0344
 Quadrupole moment (field-independent basis, Debye-Ang):
   XX=             -9.9309   YY=             -9.9309   ZZ=            -10.0672
   XY=              0.0000   XZ=              0.0000   YZ=              0.0000

 Normal termination of Gaussian 09 at Wed Nov  3 01:20:29 2010.
