 Gaussian 09, Revision A.02,
 Gaussian 09:  EM64L-G09RevA.02 11-Jun-2009

 -------------------------------------------
 #p lc-blyp/6-311+g(3df,2p) nosymm scf=tight
 -------------------------------------------

 ---------
 11 H2+CH3
 ---------
 Symbolic Z-matrix:
 Charge =  0 Multiplicity = 2

                          Input orientation:
 ---------------------------------------------------------------------
 Center     Atomic      Atomic             Coordinates (Angstroms)
 Number     Number       Type             X           Y           Z
 ---------------------------------------------------------------------
      1          6           0        0.000000    0.000000    0.000000
      2          1           0        0.000000    0.000000    1.947217
      3          1           0        1.077308    0.000000   -0.071976
      4          1           0       -0.538654   -0.932976   -0.071976
      5          1           0       -0.538654    0.932976   -0.071976
      6          1           0        0.000000    0.000000    2.704725
 ---------------------------------------------------------------------

 SCF Done:  E(ULC-B+HF-LYP) =  -40.8704069819     A.U. after   12 cycles

 Alpha  occ. eigenvalues --  -10.14685  -0.86003  -0.57165  -0.56023  -0.56023
 Alpha  occ. eigenvalues --   -0.35445
 Alpha virt. eigenvalues --    0.06934   0.09035   0.09036   0.11216   0.19980
 Alpha virt. eigenvalues --    0.23128   0.23128   0.25296   0.36720   0.36720
 Alpha virt. eigenvalues --    0.40181   0.40181   0.42000   0.48034   0.59765

  Beta  occ. eigenvalues --  -10.13261  -0.81580  -0.54979  -0.54979  -0.54910
  Beta virt. eigenvalues --    0.01831   0.07403   0.08961   0.08961   0.11599
  Beta virt. eigenvalues --    0.22048   0.23410   0.23410   0.26573   0.37736
  Beta virt. eigenvalues --    0.37736   0.40237   0.40237   0.43570   0.49078

 Mulliken atomic charges:
              1
     1  C   -0.580679
     2  H    0.033925
     3  H    0.199127
     4  H    0.199129
     5  H    0.199129
     6  H   -0.050631
 Sum of Mulliken atomic charges =   0.00000

 Dipole moment (field-independent basis, Debye):
    X=              0.0000    Y=              0.0000    Z=             -0.3003  Tot=              0.3003
 Quadrupole moment (field-independent basis, Debye-Ang):
   XX=             -9.3892   YY=             -9.3892   ZZ=            -11.5778
   XY=              0.0000   XZ=              0.0000   YZ=              0.0000

 Normal termination of Gaussian 09 at Wed Nov  3 01:41:48 2010.
