 Gaussian 09, Revision A.02,
 Gaussian 09:  EM64L-G09RevA.02 11-Jun-2009

 -------------------------------------------
 #p lc-blyp/6-311+g(3df,2p) nosymm scf=tight
 -------------------------------------------

 --------
 49 H_CH4
 --------
 Symbolic Z-matrix:
 Charge =  0 Multiplicity = 2

                          Input orientation:
 ---------------------------------------------------------------------
 Center     Atomic      Atomic             Coordinates (Angstroms)
 Number     Number       Type             X           Y           Z
 ---------------------------------------------------------------------
      1          6           0        0.000000    0.000000    0.000000
      2          1           0        0.000000    0.000000    1.089266
      3          1           0        1.027013    0.000000   -0.363046
      4          1           0       -0.513507   -0.889419   -0.363046
      5          1           0       -0.513507    0.889419   -0.363046
      6          1           0        0.000000    0.000000    4.053709
 ---------------------------------------------------------------------

 SCF Done:  E(ULC-B+HF-LYP) =  -40.8835537713     A.U. after   10 cycles

 Alpha  occ. eigenvalues --  -10.11329  -0.85943  -0.52612  -0.52523  -0.52523
 Alpha  occ. eigenvalues --   -0.45020
 Alpha virt. eigenvalues --    0.06250   0.09662   0.09662   0.10606   0.22645
 Alpha virt. eigenvalues --    0.22679   0.22679   0.27362   0.36842   0.36842
 Alpha virt. eigenvalues --    0.36848   0.41867   0.41867   0.42391   0.61705

  Beta  occ. eigenvalues --  -10.11323  -0.85925  -0.52519  -0.52519  -0.52515
  Beta virt. eigenvalues --   -0.02301   0.06512   0.09579   0.09579   0.10991
  Beta virt. eigenvalues --    0.22666   0.22666   0.22973   0.27322   0.36833
  Beta virt. eigenvalues --    0.36833   0.40218   0.41850   0.41850   0.45549

 Mulliken atomic charges:
              1
     1  C   -0.664895
     2  H    0.163175
     3  H    0.166479
     4  H    0.166480
     5  H    0.166480
     6  H    0.002282
 Sum of Mulliken atomic charges =   0.00000

 Dipole moment (field-independent basis, Debye):
    X=              0.0000    Y=              0.0000    Z=              0.0122  Tot=              0.0122
 Quadrupole moment (field-independent basis, Debye-Ang):
   XX=             -9.9513   YY=             -9.9513   ZZ=             -9.8424
   XY=              0.0000   XZ=              0.0000   YZ=              0.0000

 Normal termination of Gaussian 09 at Wed Nov  3 01:34:50 2010.
